 Entering Gaussian System, Link 0=g16
 Initial command:
 /apps/brussel/CO7/skylake/software/Gaussian/G16.A.03-intel-2017b/g16/l1.exe "/scratch/brussel/102/vsc10255/Gau-138724.inp" -scrdir="/scratch/brussel/102/vsc10255/"
 Entering Link 1 = /apps/brussel/CO7/skylake/software/Gaussian/G16.A.03-intel-2017b/g16/l1.exe.bin PID=    138725.
  
 Copyright (c) 1988,1990,1992,1993,1995,1998,2003,2009,2016,
            Gaussian, Inc.  All Rights Reserved.
  
 This is part of the Gaussian(R) 16 program.  It is based on
 the Gaussian(R) 09 system (copyright 2009, Gaussian, Inc.),
 the Gaussian(R) 03 system (copyright 2003, Gaussian, Inc.),
 the Gaussian(R) 98 system (copyright 1998, Gaussian, Inc.),
 the Gaussian(R) 94 system (copyright 1995, Gaussian, Inc.),
 the Gaussian 92(TM) system (copyright 1992, Gaussian, Inc.),
 the Gaussian 90(TM) system (copyright 1990, Gaussian, Inc.),
 the Gaussian 88(TM) system (copyright 1988, Gaussian, Inc.),
 the Gaussian 86(TM) system (copyright 1986, Carnegie Mellon
 University), and the Gaussian 82(TM) system (copyright 1983,
 Carnegie Mellon University). Gaussian is a federally registered
 trademark of Gaussian, Inc.
  
 This software contains proprietary and confidential information,
 including trade secrets, belonging to Gaussian, Inc.
  
 This software is provided under written license and may be
 used, copied, transmitted, or stored only in accord with that
 written license.
  
 The following legend is applicable only to US Government
 contracts under FAR:
  
                    RESTRICTED RIGHTS LEGEND
  
 Use, reproduction and disclosure by the US Government is
 subject to restrictions as set forth in subparagraphs (a)
 and (c) of the Commercial Computer Software - Restricted
 Rights clause in FAR 52.227-19.
  
 Gaussian, Inc.
 340 Quinnipiac St., Bldg. 40, Wallingford CT 06492
  
  
 ---------------------------------------------------------------
 Warning -- This program may not be used in any manner that
 competes with the business of Gaussian, Inc. or will provide
 assistance to any competitor of Gaussian, Inc.  The licensee
 of this program is prohibited from giving any competitor of
 Gaussian, Inc. access to this program.  By using this program,
 the user acknowledges that Gaussian, Inc. is engaged in the
 business of creating and licensing software in the field of
 computational chemistry and represents and warrants to the
 licensee that it is not a competitor of Gaussian, Inc. and that
 it will not use this program in any manner prohibited above.
 ---------------------------------------------------------------
  

 Cite this work as:
 Gaussian 16, Revision A.03,
 M. J. Frisch, G. W. Trucks, H. B. Schlegel, G. E. Scuseria, 
 M. A. Robb, J. R. Cheeseman, G. Scalmani, V. Barone, 
 G. A. Petersson, H. Nakatsuji, X. Li, M. Caricato, A. V. Marenich, 
 J. Bloino, B. G. Janesko, R. Gomperts, B. Mennucci, H. P. Hratchian, 
 J. V. Ortiz, A. F. Izmaylov, J. L. Sonnenberg, D. Williams-Young, 
 F. Ding, F. Lipparini, F. Egidi, J. Goings, B. Peng, A. Petrone, 
 T. Henderson, D. Ranasinghe, V. G. Zakrzewski, J. Gao, N. Rega, 
 G. Zheng, W. Liang, M. Hada, M. Ehara, K. Toyota, R. Fukuda, 
 J. Hasegawa, M. Ishida, T. Nakajima, Y. Honda, O. Kitao, H. Nakai, 
 T. Vreven, K. Throssell, J. A. Montgomery, Jr., J. E. Peralta, 
 F. Ogliaro, M. J. Bearpark, J. J. Heyd, E. N. Brothers, K. N. Kudin, 
 V. N. Staroverov, T. A. Keith, R. Kobayashi, J. Normand, 
 K. Raghavachari, A. P. Rendell, J. C. Burant, S. S. Iyengar, 
 J. Tomasi, M. Cossi, J. M. Millam, M. Klene, C. Adamo, R. Cammi, 
 J. W. Ochterski, R. L. Martin, K. Morokuma, O. Farkas, 
 J. B. Foresman, and D. J. Fox, Gaussian, Inc., Wallingford CT, 2016.
 
 ******************************************
 Gaussian 16:  ES64L-G16RevA.03 25-Dec-2016
                 7-Dec-2020 
 ******************************************
 %chk=JID_0.chk
 %mem=8GB
 %nprocshared=4
 Will use up to    4 processors via shared memory.
 -----------------------------------------------------------
 # opt freq B3LYP/6-31G(d) empiricaldispersion=gd3bj scf=xqc
 -----------------------------------------------------------
 1/18=20,19=15,26=3,38=1/1,3;
 2/9=110,12=2,17=6,18=5,40=1/2;
 3/5=1,6=6,7=1,11=2,25=1,30=1,71=1,74=-5,124=41/1,2,3;
 4//1;
 5/5=2,8=3,13=1,38=5/2,8;
 6/7=2,8=2,9=2,10=2,28=1/1;
 7//1,2,3,16;
 1/18=20,19=15,26=3/3(2);
 2/9=110/2;
 99//99;
 2/9=110/2;
 3/5=1,6=6,7=1,11=2,25=1,30=1,71=1,74=-5,124=41/1,2,3;
 4/5=5,16=3,69=1/1;
 5/5=2,8=3,13=1,38=5/2,8;
 7//1,2,3,16;
 1/18=20,19=15,26=3/3(-5);
 2/9=110/2;
 6/7=2,8=2,9=2,10=2,19=2,28=1/1;
 99/9=1/99;
 ----------------------------
 CID_130652087_JID_0_neutraal
 ----------------------------
 Symbolic Z-matrix:
 Charge =  0 Multiplicity = 1
 C                     0.92146   0.05713   0.0238 
 C                    -0.3824    0.05713   0.0238 
 C                    -1.9024    0.05713   0.0238 
 C                    -2.49645  -1.34866   0.10006 
 S                    -2.30733  -2.11391   1.74523 
 C                    -0.75144  -2.8714    1.59667 
 N                    -0.36996  -3.57233   0.52614 
 N                     0.86658  -3.95247   0.89162 
 N                     1.31519  -3.57792   2.1038 
 C                     0.26622  -2.88427   2.56249 
 H                     1.9871    0.05073   0.03031 
 H                    -2.26622   0.6852    0.84539 
 H                    -2.23255   0.53011  -0.90904 
 H                    -3.57517  -1.27326  -0.07695 
 H                    -2.0954   -1.99501  -0.68751 
 H                     1.44659  -4.51145   0.2703 
 H                     0.29644  -2.43396   3.54435 
 

 GradGradGradGradGradGradGradGradGradGradGradGradGradGradGradGradGradGrad
 Berny optimization.
 Initialization pass.
                           ----------------------------
                           !    Initial Parameters    !
                           ! (Angstroms and Degrees)  !
 --------------------------                            --------------------------
 ! Name  Definition              Value          Derivative Info.                !
 --------------------------------------------------------------------------------
 ! R1    R(1,2)                  1.3039         estimate D2E/DX2                !
 ! R2    R(1,11)                 1.0657         estimate D2E/DX2                !
 ! R3    R(2,3)                  1.52           estimate D2E/DX2                !
 ! R4    R(3,4)                  1.5281         estimate D2E/DX2                !
 ! R5    R(3,12)                 1.0963         estimate D2E/DX2                !
 ! R6    R(3,13)                 1.0968         estimate D2E/DX2                !
 ! R7    R(4,5)                  1.8243         estimate D2E/DX2                !
 ! R8    R(4,14)                 1.0957         estimate D2E/DX2                !
 ! R9    R(4,15)                 1.0949         estimate D2E/DX2                !
 ! R10   R(5,6)                  1.7369         estimate D2E/DX2                !
 ! R11   R(6,7)                  1.3352         estimate D2E/DX2                !
 ! R12   R(6,10)                 1.4031         estimate D2E/DX2                !
 ! R13   R(7,8)                  1.3443         estimate D2E/DX2                !
 ! R14   R(8,9)                  1.3457         estimate D2E/DX2                !
 ! R15   R(8,16)                 1.0173         estimate D2E/DX2                !
 ! R16   R(9,10)                 1.3386         estimate D2E/DX2                !
 ! R17   R(10,17)                1.0806         estimate D2E/DX2                !
 ! A1    A(2,3,4)              112.8775         estimate D2E/DX2                !
 ! A2    A(2,3,12)             109.382          estimate D2E/DX2                !
 ! A3    A(2,3,13)             107.5189         estimate D2E/DX2                !
 ! A4    A(4,3,12)             111.14           estimate D2E/DX2                !
 ! A5    A(4,3,13)             108.7939         estimate D2E/DX2                !
 ! A6    A(12,3,13)            106.885          estimate D2E/DX2                !
 ! A7    A(3,4,5)              112.9933         estimate D2E/DX2                !
 ! A8    A(3,4,14)             108.1409         estimate D2E/DX2                !
 ! A9    A(3,4,15)             111.3944         estimate D2E/DX2                !
 ! A10   A(5,4,14)             106.0578         estimate D2E/DX2                !
 ! A11   A(5,4,15)             111.289          estimate D2E/DX2                !
 ! A12   A(14,4,15)            106.5596         estimate D2E/DX2                !
 ! A13   A(4,5,6)              101.4597         estimate D2E/DX2                !
 ! A14   A(5,6,7)              123.6044         estimate D2E/DX2                !
 ! A15   A(5,6,10)             126.5028         estimate D2E/DX2                !
 ! A16   A(7,6,10)             109.8682         estimate D2E/DX2                !
 ! A17   A(6,7,8)              101.1437         estimate D2E/DX2                !
 ! A18   A(7,8,9)              118.2186         estimate D2E/DX2                !
 ! A19   A(7,8,16)             120.9157         estimate D2E/DX2                !
 ! A20   A(9,8,16)             120.8652         estimate D2E/DX2                !
 ! A21   A(8,9,10)             101.0494         estimate D2E/DX2                !
 ! A22   A(6,10,9)             109.7094         estimate D2E/DX2                !
 ! A23   A(6,10,17)            129.9345         estimate D2E/DX2                !
 ! A24   A(9,10,17)            120.3556         estimate D2E/DX2                !
 ! A25   L(2,1,11,7,-1)        179.6109         estimate D2E/DX2                !
 ! A26   L(1,2,3,6,-1)         180.0            estimate D2E/DX2                !
 ! A27   L(2,1,11,7,-2)        180.3168         estimate D2E/DX2                !
 ! A28   L(1,2,3,6,-2)         180.0            estimate D2E/DX2                !
 ! D1    D(2,3,4,5)             72.4654         estimate D2E/DX2                !
 ! D2    D(2,3,4,14)          -170.4551         estimate D2E/DX2                !
 ! D3    D(2,3,4,15)           -53.6806         estimate D2E/DX2                !
 ! D4    D(12,3,4,5)           -50.8567         estimate D2E/DX2                !
 ! D5    D(12,3,4,14)           66.2228         estimate D2E/DX2                !
 ! D6    D(12,3,4,15)         -177.0027         estimate D2E/DX2                !
 ! D7    D(13,3,4,5)          -168.2783         estimate D2E/DX2                !
 ! D8    D(13,3,4,14)          -51.1988         estimate D2E/DX2                !
 ! D9    D(13,3,4,15)           65.5757         estimate D2E/DX2                !
 ! D10   D(3,4,5,6)            -88.1642         estimate D2E/DX2                !
 ! D11   D(14,4,5,6)           153.5352         estimate D2E/DX2                !
 ! D12   D(15,4,5,6)            38.0381         estimate D2E/DX2                !
 ! D13   D(4,5,6,7)            -44.4032         estimate D2E/DX2                !
 ! D14   D(4,5,6,10)           137.5867         estimate D2E/DX2                !
 ! D15   D(5,6,7,8)           -179.3111         estimate D2E/DX2                !
 ! D16   D(10,6,7,8)            -1.0118         estimate D2E/DX2                !
 ! D17   D(5,6,10,9)           179.225          estimate D2E/DX2                !
 ! D18   D(5,6,10,17)           -1.0488         estimate D2E/DX2                !
 ! D19   D(7,6,10,9)             0.9872         estimate D2E/DX2                !
 ! D20   D(7,6,10,17)         -179.2866         estimate D2E/DX2                !
 ! D21   D(6,7,8,9)              0.8047         estimate D2E/DX2                !
 ! D22   D(6,7,8,16)          -179.4353         estimate D2E/DX2                !
 ! D23   D(7,8,9,10)            -0.229          estimate D2E/DX2                !
 ! D24   D(16,8,9,10)         -179.9891         estimate D2E/DX2                !
 ! D25   D(8,9,10,6)            -0.446          estimate D2E/DX2                !
 ! D26   D(8,9,10,17)          179.7973         estimate D2E/DX2                !
 --------------------------------------------------------------------------------
 Trust Radius=3.00D-01 FncErr=1.00D-07 GrdErr=1.00D-06 EigMax=2.50D+02 EigMin=1.00D-04
 Number of steps in this run=     81 maximum allowed number of steps=    102.
 GradGradGradGradGradGradGradGradGradGradGradGradGradGradGradGradGradGrad

                          Input orientation:                          
 ---------------------------------------------------------------------
 Center     Atomic      Atomic             Coordinates (Angstroms)
 Number     Number       Type             X           Y           Z
 ---------------------------------------------------------------------
      1          6           0        0.921460    0.057130    0.023800
      2          6           0       -0.382400    0.057130    0.023800
      3          6           0       -1.902400    0.057130    0.023800
      4          6           0       -2.496450   -1.348660    0.100060
      5         16           0       -2.307330   -2.113910    1.745230
      6          6           0       -0.751440   -2.871400    1.596670
      7          7           0       -0.369960   -3.572330    0.526140
      8          7           0        0.866580   -3.952470    0.891620
      9          7           0        1.315190   -3.577920    2.103800
     10          6           0        0.266220   -2.884270    2.562490
     11          1           0        1.987100    0.050730    0.030310
     12          1           0       -2.266220    0.685200    0.845390
     13          1           0       -2.232550    0.530110   -0.909040
     14          1           0       -3.575170   -1.273260   -0.076950
     15          1           0       -2.095400   -1.995010   -0.687510
     16          1           0        1.446590   -4.511450    0.270300
     17          1           0        0.296440   -2.433960    3.544350
 ---------------------------------------------------------------------
                    Distance matrix (angstroms):
                    1          2          3          4          5
     1  C    0.000000
     2  C    1.303860   0.000000
     3  C    2.823860   1.520000   0.000000
     4  C    3.696508   2.539935   1.528056   0.000000
     5  S    4.254623   3.373736   2.800126   1.824269   0.000000
     6  C    3.721398   3.344607   3.517800   2.757470   1.736852
     7  N    3.884983   3.664080   3.971611   3.106157   2.714143
     8  N    4.102806   4.288351   4.949470   4.326241   3.765987
     9  N    4.206544   4.519049   5.281370   4.849038   3.923589
    10  C    3.940320   3.939224   4.449685   4.006745   2.807940
    11  H    1.065679   2.369518   3.889511   4.697380   5.105756
    12  H    3.351236   2.149014   1.096288   2.178327   2.940479
    13  H    3.322902   2.125313   1.096768   2.148884   3.747210
    14  H    4.690391   3.460328   2.139684   1.095744   2.373700
    15  H    3.717349   2.766154   2.180479   1.094932   2.444847
    16  H    4.605263   4.927260   5.669958   5.057646   4.692071
    17  H    4.357804   4.365848   4.840940   4.565221   3.181019
                    6          7          8          9         10
     6  C    0.000000
     7  N    1.335239   0.000000
     8  N    2.069733   1.344289   0.000000
     9  N    2.242167   2.308413   1.345704   0.000000
    10  C    1.403070   2.241623   2.072026   1.338613   0.000000
    11  H    4.300224   4.350649   4.245354   4.232957   4.241178
    12  H    3.938069   4.671647   5.596834   5.708265   4.701362
    13  H    4.476890   4.728530   5.739382   6.208025   5.472967
    14  H    3.650823   3.990340   5.276878   5.829472   4.931356
    15  H    2.791374   2.634014   3.885695   4.682856   4.114673
    16  H    3.046368   2.060887   1.017305   2.061666   3.048790
    17  H    2.254521   3.293868   3.109326   2.102779   1.080621
                   11         12         13         14         15
    11  H    0.000000
    12  H    4.376944   0.000000
    13  H    4.349440   1.761593   0.000000
    14  H    5.718680   2.529748   2.397321   0.000000
    15  H    4.622459   3.092327   2.538526   1.755969   0.000000
    16  H    4.600351   6.412555   6.351712   5.985360   4.449221
    17  H    4.623904   4.856004   5.917278   5.426822   4.880801
                   16         17
    16  H    0.000000
    17  H    4.044529   0.000000
 Stoichiometry    C6H7N3S
 Framework group  C1[X(C6H7N3S)]
 Deg. of freedom    45
 Full point group                 C1      NOp   1
 Largest Abelian subgroup         C1      NOp   1
 Largest concise Abelian subgroup C1      NOp   1
                         Standard orientation:                         
 ---------------------------------------------------------------------
 Center     Atomic      Atomic             Coordinates (Angstroms)
 Number     Number       Type             X           Y           Z
 ---------------------------------------------------------------------
      1          6           0        0.931055    2.653109   -0.291735
      2          6           0        1.688579    1.601597   -0.148442
      3          6           0        2.571677    0.375778    0.018604
      4          6           0        1.845112   -0.794009    0.680917
      5         16           0        0.624426   -1.588587   -0.417505
      6          6           0       -0.794619   -0.638462   -0.100917
      7          7           0       -1.186015   -0.280418    1.124431
      8          7           0       -2.307646    0.407215    0.848350
      9          7           0       -2.688098    0.514104   -0.438020
     10          6           0       -1.713093   -0.167788   -1.051431
     11          1           0        0.305028    3.507166   -0.411520
     12          1           0        2.980441    0.086238   -0.956550
     13          1           0        3.422425    0.664986    0.647480
     14          1           0        2.586184   -1.565326    0.918689
     15          1           0        1.389919   -0.495189    1.630855
     16          1           0       -2.856442    0.832393    1.591960
     17          1           0       -1.718314   -0.280531   -2.126142
 ---------------------------------------------------------------------
 Rotational constants (GHZ):           1.6722592           0.9635530           0.7325202
 Standard basis: 6-31G(d) (6D, 7F)
 There are   168 symmetry adapted cartesian basis functions of A   symmetry.
 There are   168 symmetry adapted basis functions of A   symmetry.
   168 basis functions,   332 primitive gaussians,   168 cartesian basis functions
    40 alpha electrons       40 beta electrons
       nuclear repulsion energy       571.4677956283 Hartrees.
 NAtoms=   17 NActive=   17 NUniq=   17 SFac= 1.00D+00 NAtFMM=   60 NAOKFM=F Big=F
 Integral buffers will be    131072 words long.
 Raffenetti 2 integral format.
 Two-electron integral symmetry is turned on.
 Nuclear repulsion after empirical dispersion term =      571.4351133097 Hartrees.
 One-electron integrals computed using PRISM.
 NBasis=   168 RedAO= T EigKep=  8.47D-04  NBF=   168
 NBsUse=   168 1.00D-06 EigRej= -1.00D+00 NBFU=   168
 ExpMin= 1.17D-01 ExpMax= 2.19D+04 ExpMxC= 3.30D+03 IAcc=3 IRadAn=         5 AccDes= 0.00D+00
 Harris functional with IExCor=  402 and IRadAn=       5 diagonalized for initial guess.
 HarFok:  IExCor=  402 AccDes= 0.00D+00 IRadAn=         5 IDoV= 1 UseB2=F ITyADJ=14
 ICtDFT=  3500011 ScaDFX=  1.000000  1.000000  1.000000  1.000000
 FoFCou: FMM=F IPFlag=           0 FMFlag=      100000 FMFlg1=           0
         NFxFlg=           0 DoJE=T BraDBF=F KetDBF=T FulRan=T
         wScrn=  0.000000 ICntrl=       500 IOpCl=  0 I1Cent=   200000004 NGrid=           0
         NMat0=    1 NMatS0=      1 NMatT0=    0 NMatD0=    1 NMtDS0=    0 NMtDT0=    0
 Petite list used in FoFCou.
 Keep R1 ints in memory in canonical form, NReq=104755136.
 Requested convergence on RMS density matrix=1.00D-08 within  32 cycles.
 Requested convergence on MAX density matrix=1.00D-06.
 Requested convergence on             energy=1.00D-06.
 No special actions if energy rises.
 Integral accuracy reduced to 1.0D-05 until final iterations.
 Initial convergence to 1.0D-05 achieved.  Increase integral accuracy.
 SCF Done:  E(RB3LYP) =  -795.191313087     A.U. after   15 cycles
            NFock= 15  Conv=0.70D-08     -V/T= 2.0069
 QCSCF skips out because SCF is already converged.

 **********************************************************************

            Population analysis using the SCF density.

 **********************************************************************

 Orbital symmetries:
       Occupied  (A) (A) (A) (A) (A) (A) (A) (A) (A) (A) (A) (A)
                 (A) (A) (A) (A) (A) (A) (A) (A) (A) (A) (A) (A)
                 (A) (A) (A) (A) (A) (A) (A) (A) (A) (A) (A) (A)
                 (A) (A) (A) (A)
       Virtual   (A) (A) (A) (A) (A) (A) (A) (A) (A) (A) (A) (A)
                 (A) (A) (A) (A) (A) (A) (A) (A) (A) (A) (A) (A)
                 (A) (A) (A) (A) (A) (A) (A) (A) (A) (A) (A) (A)
                 (A) (A) (A) (A) (A) (A) (A) (A) (A) (A) (A) (A)
                 (A) (A) (A) (A) (A) (A) (A) (A) (A) (A) (A) (A)
                 (A) (A) (A) (A) (A) (A) (A) (A) (A) (A) (A) (A)
                 (A) (A) (A) (A) (A) (A) (A) (A) (A) (A) (A) (A)
                 (A) (A) (A) (A) (A) (A) (A) (A) (A) (A) (A) (A)
                 (A) (A) (A) (A) (A) (A) (A) (A) (A) (A) (A) (A)
                 (A) (A) (A) (A) (A) (A) (A) (A) (A) (A) (A) (A)
                 (A) (A) (A) (A) (A) (A) (A) (A)
 The electronic state is 1-A.
 Alpha  occ. eigenvalues --  -88.88654 -14.44623 -14.37770 -14.37541 -10.24125
 Alpha  occ. eigenvalues --  -10.22949 -10.22844 -10.21912 -10.21036 -10.19893
 Alpha  occ. eigenvalues --   -7.94833  -5.91369  -5.90956  -5.90288  -1.10022
 Alpha  occ. eigenvalues --   -0.89988  -0.84520  -0.81359  -0.74891  -0.70146
 Alpha  occ. eigenvalues --   -0.64853  -0.63013  -0.57993  -0.54773  -0.53269
 Alpha  occ. eigenvalues --   -0.48011  -0.47399  -0.46077  -0.44889  -0.42894
 Alpha  occ. eigenvalues --   -0.40581  -0.38792  -0.34130  -0.33671  -0.30722
 Alpha  occ. eigenvalues --   -0.29992  -0.28539  -0.25512  -0.25058  -0.22184
 Alpha virt. eigenvalues --   -0.01738   0.01898   0.03150   0.03938   0.05836
 Alpha virt. eigenvalues --    0.07381   0.10086   0.10224   0.11650   0.13997
 Alpha virt. eigenvalues --    0.14986   0.15174   0.18191   0.19464   0.20307
 Alpha virt. eigenvalues --    0.22829   0.23901   0.25582   0.30978   0.32743
 Alpha virt. eigenvalues --    0.37433   0.38395   0.40368   0.42304   0.45827
 Alpha virt. eigenvalues --    0.46589   0.50787   0.53205   0.54197   0.56260
 Alpha virt. eigenvalues --    0.57632   0.59746   0.60553   0.62870   0.64119
 Alpha virt. eigenvalues --    0.66256   0.66866   0.67713   0.68526   0.70065
 Alpha virt. eigenvalues --    0.73494   0.74092   0.76262   0.76429   0.78712
 Alpha virt. eigenvalues --    0.79513   0.79940   0.81911   0.82973   0.83303
 Alpha virt. eigenvalues --    0.85626   0.85949   0.87790   0.89285   0.90195
 Alpha virt. eigenvalues --    0.92355   0.93234   0.95183   0.97071   0.97911
 Alpha virt. eigenvalues --    1.01375   1.02181   1.05463   1.07989   1.13270
 Alpha virt. eigenvalues --    1.19433   1.21969   1.30923   1.33696   1.34576
 Alpha virt. eigenvalues --    1.36747   1.38593   1.40071   1.43959   1.49100
 Alpha virt. eigenvalues --    1.50776   1.54252   1.57120   1.59260   1.60070
 Alpha virt. eigenvalues --    1.61609   1.66265   1.71952   1.74377   1.76108
 Alpha virt. eigenvalues --    1.84716   1.86504   1.88569   1.89356   1.94177
 Alpha virt. eigenvalues --    1.95094   1.99980   2.04034   2.09579   2.11403
 Alpha virt. eigenvalues --    2.13880   2.18498   2.19825   2.21016   2.28876
 Alpha virt. eigenvalues --    2.30973   2.32167   2.35431   2.39580   2.40649
 Alpha virt. eigenvalues --    2.45318   2.55391   2.57259   2.57755   2.58105
 Alpha virt. eigenvalues --    2.65006   2.68480   2.70366   2.73650   2.89264
 Alpha virt. eigenvalues --    2.91166   3.04330   3.18811   3.59569   3.86741
 Alpha virt. eigenvalues --    3.91731   4.03725   4.07556   4.12085   4.19164
 Alpha virt. eigenvalues --    4.31805   4.38492   4.64285
          Condensed to atoms (all electrons):
               1          2          3          4          5          6
     1  C    5.279920   0.831813  -0.088807  -0.001139   0.000196   0.002333
     2  C    0.831813   4.739832   0.371405  -0.046605  -0.004436   0.003448
     3  C   -0.088807   0.371405   5.167676   0.325605  -0.054408  -0.004085
     4  C   -0.001139  -0.046605   0.325605   5.277908   0.245191  -0.008698
     5  S    0.000196  -0.004436  -0.054408   0.245191  15.558549   0.279200
     6  C    0.002333   0.003448  -0.004085  -0.008698   0.279200   4.953366
     7  N   -0.000549  -0.000366  -0.000110  -0.009778  -0.059555   0.388840
     8  N    0.000365   0.000000  -0.000012   0.000360   0.006673  -0.121751
     9  N    0.000021  -0.000128   0.000000  -0.000137   0.004757  -0.028236
    10  C    0.000231  -0.000435   0.000133   0.001354  -0.056742   0.507453
    11  H    0.356737  -0.009188   0.001572  -0.000029  -0.000006   0.000037
    12  H   -0.000339  -0.029445   0.367887  -0.039577  -0.000880  -0.000253
    13  H   -0.000625  -0.034745   0.350164  -0.032038   0.006699  -0.000094
    14  H    0.000046   0.005371  -0.040478   0.355586  -0.034523   0.002194
    15  H    0.000104  -0.003703  -0.033345   0.361367  -0.029911  -0.010506
    16  H   -0.000005   0.000002   0.000001  -0.000002  -0.000281   0.006569
    17  H   -0.000016  -0.000009  -0.000001  -0.000022   0.001879  -0.045093
               7          8          9         10         11         12
     1  C   -0.000549   0.000365   0.000021   0.000231   0.356737  -0.000339
     2  C   -0.000366   0.000000  -0.000128  -0.000435  -0.009188  -0.029445
     3  C   -0.000110  -0.000012   0.000000   0.000133   0.001572   0.367887
     4  C   -0.009778   0.000360  -0.000137   0.001354  -0.000029  -0.039577
     5  S   -0.059555   0.006673   0.004757  -0.056742  -0.000006  -0.000880
     6  C    0.388840  -0.121751  -0.028236   0.507453   0.000037  -0.000253
     7  N    6.864545   0.240482  -0.091947  -0.038228   0.000009   0.000004
     8  N    0.240482   6.621059   0.251123  -0.128048   0.000001   0.000000
     9  N   -0.091947   0.251123   6.767037   0.427044   0.000021   0.000000
    10  C   -0.038228  -0.128048   0.427044   4.890856   0.000035   0.000004
    11  H    0.000009   0.000001   0.000021   0.000035   0.452264  -0.000021
    12  H    0.000004   0.000000   0.000000   0.000004  -0.000021   0.542954
    13  H   -0.000033   0.000001  -0.000000  -0.000006  -0.000025  -0.034278
    14  H    0.000200   0.000000   0.000001  -0.000062   0.000001  -0.001255
    15  H    0.011282  -0.000414   0.000032   0.000231  -0.000010   0.004465
    16  H   -0.037862   0.328734  -0.038871   0.007735  -0.000001   0.000000
    17  H    0.004703   0.007238  -0.046261   0.378790  -0.000000   0.000001
              13         14         15         16         17
     1  C   -0.000625   0.000046   0.000104  -0.000005  -0.000016
     2  C   -0.034745   0.005371  -0.003703   0.000002  -0.000009
     3  C    0.350164  -0.040478  -0.033345   0.000001  -0.000001
     4  C   -0.032038   0.355586   0.361367  -0.000002  -0.000022
     5  S    0.006699  -0.034523  -0.029911  -0.000281   0.001879
     6  C   -0.000094   0.002194  -0.010506   0.006569  -0.045093
     7  N   -0.000033   0.000200   0.011282  -0.037862   0.004703
     8  N    0.000001   0.000000  -0.000414   0.328734   0.007238
     9  N   -0.000000   0.000001   0.000032  -0.038871  -0.046261
    10  C   -0.000006  -0.000062   0.000231   0.007735   0.378790
    11  H   -0.000025   0.000001  -0.000010  -0.000001  -0.000000
    12  H   -0.034278  -0.001255   0.004465   0.000000   0.000001
    13  H    0.571466  -0.002933  -0.001795   0.000000   0.000000
    14  H   -0.002933   0.559663  -0.024581  -0.000000  -0.000000
    15  H   -0.001795  -0.024581   0.510899   0.000015  -0.000004
    16  H    0.000000  -0.000000   0.000015   0.367910  -0.000178
    17  H    0.000000  -0.000000  -0.000004  -0.000178   0.534409
 Mulliken charges:
               1
     1  C   -0.380285
     2  C    0.177188
     3  C   -0.363198
     4  C   -0.429346
     5  S    0.137597
     6  C    0.075274
     7  N   -0.271638
     8  N   -0.205811
     9  N   -0.244457
    10  C    0.009656
    11  H    0.198603
    12  H    0.190733
    13  H    0.178242
    14  H    0.180770
    15  H    0.215873
    16  H    0.366234
    17  H    0.164564
 Sum of Mulliken charges =   0.00000
 Mulliken charges with hydrogens summed into heavy atoms:
               1
     1  C   -0.181682
     2  C    0.177188
     3  C    0.005777
     4  C   -0.032702
     5  S    0.137597
     6  C    0.075274
     7  N   -0.271638
     8  N    0.160423
     9  N   -0.244457
    10  C    0.174219
 Electronic spatial extent (au):  <R**2>=           1615.0569
 Charge=              0.0000 electrons
 Dipole moment (field-independent basis, Debye):
    X=              0.7542    Y=              0.6417    Z=              1.0876  Tot=              1.4709
 Quadrupole moment (field-independent basis, Debye-Ang):
   XX=            -58.3525   YY=            -65.7220   ZZ=            -62.5599
   XY=             -4.6837   XZ=             -2.2430   YZ=              2.0954
 Traceless Quadrupole moment (field-independent basis, Debye-Ang):
   XX=              3.8590   YY=             -3.5106   ZZ=             -0.3484
   XY=             -4.6837   XZ=             -2.2430   YZ=              2.0954
 Octapole moment (field-independent basis, Debye-Ang**2):
  XXX=             13.1366  YYY=             18.5706  ZZZ=              2.3658  XYY=            -11.8514
  XXY=             -8.5131  XXZ=             24.0888  XZZ=            -13.7245  YZZ=              0.3119
  YYZ=              1.1830  XYZ=             -9.3332
 Hexadecapole moment (field-independent basis, Debye-Ang**3):
 XXXX=          -1206.5575 YYYY=           -630.4860 ZZZZ=           -235.7422 XXXY=            -32.8949
 XXXZ=            -67.2157 YYYX=            -41.4891 YYYZ=             -8.0371 ZZZX=             -5.5475
 ZZZY=             12.1197 XXYY=           -334.9822 XXZZ=           -212.4675 YYZZ=           -161.1574
 XXYZ=             25.5234 YYXZ=             -3.2250 ZZXY=            -15.6805
 N-N= 5.714351133097D+02 E-N=-3.010804885938D+03  KE= 7.897049466815D+02
 Calling FoFJK, ICntrl=      2127 FMM=F ISym2X=0 I1Cent= 0 IOpClX= 0 NMat=1 NMatS=1 NMatT=0.
 ***** Axes restored to original set *****
 -------------------------------------------------------------------
 Center     Atomic                   Forces (Hartrees/Bohr)
 Number     Number              X              Y              Z
 -------------------------------------------------------------------
      1        6          -0.157782727   -0.000121998    0.000005248
      2        6           0.126042708    0.000880188    0.002458628
      3        6           0.034554228    0.003321717   -0.004986913
      4        6          -0.006046135    0.003860518   -0.005548015
      5       16          -0.013218690    0.000592816    0.002530138
      6        6          -0.001481086    0.000988409    0.000381736
      7        7           0.017518008   -0.003385567    0.009942245
      8        7           0.010260454   -0.006847391   -0.007423392
      9        7          -0.017976058   -0.002038987   -0.015076511
     10        6           0.010711498    0.000558691    0.008694901
     11        1           0.001247841   -0.000247543   -0.000040784
     12        1           0.000571329   -0.001678626    0.000524698
     13        1          -0.000673547    0.000560917   -0.001353684
     14        1          -0.000349120   -0.001046254    0.002669853
     15        1           0.001916363   -0.000887420    0.004855655
     16        1          -0.003795535    0.004151483    0.003578022
     17        1          -0.001499532    0.001339048   -0.001211826
 -------------------------------------------------------------------
 Cartesian Forces:  Max     0.157782727 RMS     0.029288830

 GradGradGradGradGradGradGradGradGradGradGradGradGradGradGradGradGradGrad
 Berny optimization.
 FormGI is forming the generalized inverse of G from B-inverse, IUseBI=4.
 Internal  Forces:  Max     0.156533146 RMS     0.019402122
 Search for a local minimum.
 Step number   1 out of a maximum of   81
 All quantities printed in internal units (Hartrees-Bohrs-Radians)
 Mixed Optimization -- RFO/linear search
 Second derivative matrix not updated -- first step.
 ITU=  0
     Eigenvalues ---    0.00230   0.00395   0.00501   0.00501   0.00557
     Eigenvalues ---    0.00557   0.01206   0.01928   0.02022   0.02124
     Eigenvalues ---    0.02207   0.02287   0.04462   0.05305   0.05822
     Eigenvalues ---    0.06036   0.11432   0.13926   0.16000   0.16000
     Eigenvalues ---    0.16000   0.16000   0.22011   0.22289   0.23131
     Eigenvalues ---    0.23982   0.24294   0.24988   0.25000   0.29604
     Eigenvalues ---    0.30367   0.31797   0.34042   0.34096   0.34157
     Eigenvalues ---    0.34249   0.35919   0.37782   0.41603   0.44771
     Eigenvalues ---    0.51979   0.52079   0.56597   0.57756   0.66132
 RFO step:  Lambda=-4.18969206D-02 EMin= 2.30000000D-03
 Linear search not attempted -- first point.
 Iteration  1 RMS(Cart)=  0.06981523 RMS(Int)=  0.00337184
 Iteration  2 RMS(Cart)=  0.00503378 RMS(Int)=  0.00009161
 Iteration  3 RMS(Cart)=  0.00001942 RMS(Int)=  0.00009111
 Iteration  4 RMS(Cart)=  0.00000000 RMS(Int)=  0.00009111
 Variable       Old X    -DE/DX   Delta X   Delta X   Delta X     New X
                                 (Linear)    (Quad)   (Total)
    R1        2.46394  -0.15653   0.00000  -0.22259  -0.22259   2.24134
    R2        2.01384   0.00125   0.00000   0.00298   0.00298   2.01682
    R3        2.87238  -0.03049   0.00000  -0.08823  -0.08823   2.78415
    R4        2.88761   0.00421   0.00000   0.01246   0.01246   2.90007
    R5        2.07168  -0.00076   0.00000  -0.00198  -0.00198   2.06970
    R6        2.07259   0.00160   0.00000   0.00417   0.00417   2.07676
    R7        3.44737   0.00328   0.00000   0.01150   0.01150   3.45887
    R8        2.07066  -0.00016   0.00000  -0.00042  -0.00042   2.07024
    R9        2.06912  -0.00227   0.00000  -0.00590  -0.00590   2.06322
   R10        3.28217   0.01468   0.00000   0.04080   0.04080   3.32297
   R11        2.52324   0.00691   0.00000   0.01205   0.01206   2.53530
   R12        2.65142   0.00335   0.00000   0.00914   0.00915   2.66057
   R13        2.54034  -0.00897   0.00000  -0.01629  -0.01630   2.52404
   R14        2.54301  -0.01102   0.00000  -0.02019  -0.02020   2.52281
   R15        1.92243  -0.00663   0.00000  -0.01354  -0.01354   1.90889
   R16        2.52961   0.00051   0.00000   0.00111   0.00111   2.53072
   R17        2.04208  -0.00059   0.00000  -0.00146  -0.00146   2.04062
    A1        1.97008   0.00001   0.00000  -0.00056  -0.00065   1.96943
    A2        1.90908  -0.00039   0.00000  -0.00878  -0.00890   1.90018
    A3        1.87656   0.00106   0.00000   0.01123   0.01119   1.88775
    A4        1.93976  -0.00214   0.00000  -0.01388  -0.01393   1.92583
    A5        1.89881   0.00065   0.00000   0.00713   0.00713   1.90594
    A6        1.86550   0.00099   0.00000   0.00630   0.00633   1.87183
    A7        1.97210   0.00477   0.00000   0.01533   0.01522   1.98732
    A8        1.88741   0.00163   0.00000   0.01932   0.01919   1.90661
    A9        1.94420  -0.00074   0.00000  -0.00517  -0.00520   1.93900
   A10        1.85106  -0.00219   0.00000  -0.00547  -0.00576   1.84530
   A11        1.94236  -0.00498   0.00000  -0.03540  -0.03542   1.90694
   A12        1.85982   0.00149   0.00000   0.01339   0.01326   1.87307
   A13        1.77081  -0.00300   0.00000  -0.01029  -0.01029   1.76052
   A14        2.15730   0.00345   0.00000   0.00866   0.00865   2.16596
   A15        2.20789   0.00578   0.00000   0.01666   0.01665   2.22454
   A16        1.91756  -0.00922   0.00000  -0.02507  -0.02509   1.89247
   A17        1.76529   0.01164   0.00000   0.04081   0.04077   1.80606
   A18        2.06330  -0.00945   0.00000  -0.04055  -0.04059   2.02271
   A19        2.11038   0.00440   0.00000   0.01867   0.01868   2.12906
   A20        2.10950   0.00505   0.00000   0.02187   0.02189   2.13138
   A21        1.76364   0.01269   0.00000   0.04087   0.04082   1.80447
   A22        1.91479  -0.00565   0.00000  -0.01595  -0.01597   1.89882
   A23        2.26779   0.00075   0.00000  -0.00229  -0.00228   2.26550
   A24        2.10060   0.00490   0.00000   0.01825   0.01826   2.11886
   A25        3.13480  -0.00047   0.00000  -0.00983  -0.00983   3.12497
   A26        3.14159  -0.00115   0.00000  -0.02448  -0.02448   3.11711
   A27        3.14712  -0.00015   0.00000  -0.00319  -0.00319   3.14394
   A28        3.14159   0.00081   0.00000   0.01722   0.01722   3.15881
    D1        1.26476  -0.00326   0.00000  -0.04067  -0.04073   1.22403
    D2       -2.97500  -0.00212   0.00000  -0.02600  -0.02591  -3.00092
    D3       -0.93690   0.00026   0.00000  -0.00100  -0.00096  -0.93787
    D4       -0.88762  -0.00113   0.00000  -0.01818  -0.01830  -0.90592
    D5        1.15581   0.00001   0.00000  -0.00351  -0.00349   1.15232
    D6       -3.08928   0.00239   0.00000   0.02148   0.02146  -3.06782
    D7       -2.93701  -0.00149   0.00000  -0.02213  -0.02219  -2.95920
    D8       -0.89359  -0.00035   0.00000  -0.00746  -0.00737  -0.90096
    D9        1.14451   0.00202   0.00000   0.01754   0.01758   1.16209
   D10       -1.53876   0.00238   0.00000   0.03735   0.03730  -1.50145
   D11        2.67969  -0.00086   0.00000   0.00874   0.00885   2.68855
   D12        0.66389   0.00113   0.00000   0.01385   0.01379   0.67768
   D13       -0.77498  -0.00014   0.00000  -0.00233  -0.00233  -0.77731
   D14        2.40134  -0.00063   0.00000  -0.01202  -0.01202   2.38932
   D15       -3.12957  -0.00045   0.00000  -0.00537  -0.00519  -3.13476
   D16       -0.01766   0.00019   0.00000   0.00355   0.00354  -0.01412
   D17        3.12807  -0.00039   0.00000  -0.00519  -0.00507   3.12299
   D18       -0.01830  -0.00014   0.00000  -0.00181  -0.00175  -0.02006
   D19        0.01723  -0.00100   0.00000  -0.01423  -0.01397   0.00326
   D20       -3.12914  -0.00075   0.00000  -0.01085  -0.01065  -3.13979
   D21        0.01404   0.00053   0.00000   0.00793   0.00775   0.02179
   D22       -3.13174   0.00026   0.00000   0.00400   0.00393  -3.12781
   D23       -0.00400  -0.00098   0.00000  -0.01583  -0.01580  -0.01979
   D24       -3.14140  -0.00072   0.00000  -0.01189  -0.01196   3.12982
   D25       -0.00778   0.00103   0.00000   0.01667   0.01694   0.00915
   D26        3.13806   0.00081   0.00000   0.01372   0.01401  -3.13112
         Item               Value     Threshold  Converged?
 Maximum Force            0.156533     0.000450     NO 
 RMS     Force            0.019402     0.000300     NO 
 Maximum Displacement     0.278283     0.001800     NO 
 RMS     Displacement     0.070798     0.001200     NO 
 Predicted change in Energy=-2.259602D-02
 GradGradGradGradGradGradGradGradGradGradGradGradGradGradGradGradGradGrad

                          Input orientation:                          
 ---------------------------------------------------------------------
 Center     Atomic      Atomic             Coordinates (Angstroms)
 Number     Number       Type             X           Y           Z
 ---------------------------------------------------------------------
      1          6           0        0.788052   -0.024693    0.076594
      2          6           0       -0.396042    0.036004    0.045071
      3          6           0       -1.868346    0.067657    0.000790
      4          6           0       -2.497495   -1.328462    0.101643
      5         16           0       -2.326762   -2.100161    1.752559
      6          6           0       -0.743696   -2.851392    1.605351
      7          7           0       -0.338592   -3.548183    0.532822
      8          7           0        0.898792   -3.930707    0.859244
      9          7           0        1.323122   -3.560743    2.069755
     10          6           0        0.290671   -2.863069    2.560424
     11          1           0        1.852371   -0.096531    0.109730
     12          1           0       -2.233398    0.709122    0.809994
     13          1           0       -2.172581    0.533625   -0.946872
     14          1           0       -3.575068   -1.252879   -0.080827
     15          1           0       -2.086188   -2.000400   -0.654253
     16          1           0        1.474590   -4.472791    0.230769
     17          1           0        0.330829   -2.413607    3.541466
 ---------------------------------------------------------------------
                    Distance matrix (angstroms):
                    1          2          3          4          5
     1  C    0.000000
     2  C    1.186068   0.000000
     3  C    2.659084   1.473310   0.000000
     4  C    3.534864   2.506207   1.534649   0.000000
     5  S    4.101035   3.347595   2.824584   1.830354   0.000000
     6  C    3.559997   3.300363   3.515722   2.766996   1.758441
     7  N    3.727258   3.617679   3.962008   3.126330   2.745423
     8  N    3.985191   4.251385   4.937703   4.345159   3.814854
     9  N    4.094220   4.471181   5.256555   4.842898   3.944054
    10  C    3.804363   3.899128   4.449970   4.021753   2.843524
    11  H    1.067255   2.253244   3.725931   4.520958   4.917171
    12  H    3.194608   2.100969   1.095241   2.173306   2.964661
    13  H    3.181910   2.094676   1.098976   2.161556   3.774590
    14  H    4.535421   3.432678   2.159485   1.095523   2.374333
    15  H    3.563539   2.737259   2.180228   1.091811   2.420861
    16  H    4.503408   4.884976   5.643030   5.067637   4.732388
    17  H    4.233355   4.330556   4.850714   4.583595   3.218886
                    6          7          8          9         10
     6  C    0.000000
     7  N    1.341620   0.000000
     8  N    2.102228   1.335663   0.000000
     9  N    2.233962   2.263540   1.335015   0.000000
    10  C    1.407912   2.230813   2.098494   1.339201   0.000000
    11  H    4.070099   4.110137   4.021441   4.015292   4.012299
    12  H    3.940693   4.668165   5.598308   5.698032   4.711207
    13  H    4.473689   4.713191   5.711887   6.171210   5.468663
    14  H    3.662664   4.014943   5.298106   5.826105   4.951046
    15  H    2.762658   2.618944   3.863530   4.634466   4.089963
    16  H    3.072329   2.057612   1.010139   2.058311   3.069229
    17  H    2.257167   3.284407   3.133447   2.113410   1.079848
                   11         12         13         14         15
    11  H    0.000000
    12  H    4.222908   0.000000
    13  H    4.208770   1.766658   0.000000
    14  H    5.552527   2.538325   2.430762   0.000000
    15  H    4.440792   3.083374   2.552327   1.761922   0.000000
    16  H    4.394203   6.398195   6.304990   5.996997   4.424378
    17  H    4.411433   4.877256   5.924392   5.452002   4.859708
                   16         17
    16  H    0.000000
    17  H    4.063145   0.000000
 Stoichiometry    C6H7N3S
 Framework group  C1[X(C6H7N3S)]
 Deg. of freedom    45
 Full point group                 C1      NOp   1
 Largest Abelian subgroup         C1      NOp   1
 Largest concise Abelian subgroup C1      NOp   1
                         Standard orientation:                         
 ---------------------------------------------------------------------
 Center     Atomic      Atomic             Coordinates (Angstroms)
 Number     Number       Type             X           Y           Z
 ---------------------------------------------------------------------
      1          6           0        0.860908    2.505560   -0.328487
      2          6           0        1.627387    1.612548   -0.180851
      3          6           0        2.549925    0.483001    0.028171
      4          6           0        1.872741   -0.724535    0.690309
      5         16           0        0.679376   -1.590934   -0.393862
      6          6           0       -0.776336   -0.647713   -0.105151
      7          7           0       -1.189594   -0.254986    1.109316
      8          7           0       -2.317808    0.412601    0.853473
      9          7           0       -2.686720    0.464245   -0.428518
     10          6           0       -1.710564   -0.201254   -1.059146
     11          1           0        0.157767    3.298085   -0.457060
     12          1           0        2.982289    0.195593   -0.936200
     13          1           0        3.375800    0.828694    0.665490
     14          1           0        2.634088   -1.468790    0.948390
     15          1           0        1.373274   -0.435632    1.617196
     16          1           0       -2.861514    0.845287    1.586649
     17          1           0       -1.717234   -0.326956   -2.131632
 ---------------------------------------------------------------------
 Rotational constants (GHZ):           1.7346926           0.9671423           0.7457980
 Standard basis: 6-31G(d) (6D, 7F)
 There are   168 symmetry adapted cartesian basis functions of A   symmetry.
 There are   168 symmetry adapted basis functions of A   symmetry.
   168 basis functions,   332 primitive gaussians,   168 cartesian basis functions
    40 alpha electrons       40 beta electrons
       nuclear repulsion energy       575.2470616040 Hartrees.
 NAtoms=   17 NActive=   17 NUniq=   17 SFac= 1.00D+00 NAtFMM=   60 NAOKFM=F Big=F
 Integral buffers will be    131072 words long.
 Raffenetti 2 integral format.
 Two-electron integral symmetry is turned on.
 Nuclear repulsion after empirical dispersion term =      575.2136942654 Hartrees.
 One-electron integrals computed using PRISM.
 NBasis=   168 RedAO= T EigKep=  4.37D-04  NBF=   168
 NBsUse=   168 1.00D-06 EigRej= -1.00D+00 NBFU=   168
 Initial guess from the checkpoint file:  "JID_0.chk"
 B after Tr=     0.000000   -0.000000   -0.000000
         Rot=    0.999895    0.009755    0.000473   -0.010692 Ang=   1.66 deg.
 ExpMin= 1.17D-01 ExpMax= 2.19D+04 ExpMxC= 3.30D+03 IAcc=2 IRadAn=         4 AccDes= 0.00D+00
 Harris functional with IExCor=  402 and IRadAn=       4 diagonalized for initial guess.
 HarFok:  IExCor=  402 AccDes= 0.00D+00 IRadAn=         4 IDoV= 1 UseB2=F ITyADJ=14
 ICtDFT=  3500011 ScaDFX=  1.000000  1.000000  1.000000  1.000000
 FoFCou: FMM=F IPFlag=           0 FMFlag=      100000 FMFlg1=           0
         NFxFlg=           0 DoJE=T BraDBF=F KetDBF=T FulRan=T
         wScrn=  0.000000 ICntrl=       500 IOpCl=  0 I1Cent=   200000004 NGrid=           0
         NMat0=    1 NMatS0=      1 NMatT0=    0 NMatD0=    1 NMtDS0=    0 NMtDT0=    0
 Petite list used in FoFCou.
 Keep R1 ints in memory in canonical form, NReq=104755136.
 Requested convergence on RMS density matrix=1.00D-08 within  32 cycles.
 Requested convergence on MAX density matrix=1.00D-06.
 Requested convergence on             energy=1.00D-06.
 No special actions if energy rises.
 Integral accuracy reduced to 1.0D-05 until final iterations.
 Initial convergence to 1.0D-05 achieved.  Increase integral accuracy.
 SCF Done:  E(RB3LYP) =  -795.209783518     A.U. after   13 cycles
            NFock= 13  Conv=0.54D-08     -V/T= 2.0063
 QCSCF skips out because SCF is already converged.
 Calling FoFJK, ICntrl=      2127 FMM=F ISym2X=0 I1Cent= 0 IOpClX= 0 NMat=1 NMatS=1 NMatT=0.
 ***** Axes restored to original set *****
 -------------------------------------------------------------------
 Center     Atomic                   Forces (Hartrees/Bohr)
 Number     Number              X              Y              Z
 -------------------------------------------------------------------
      1        6           0.047343452   -0.002477883    0.001120425
      2        6          -0.051099400    0.001119925   -0.000439196
      3        6           0.012340717    0.001675732   -0.001359393
      4        6          -0.004626248    0.003446738   -0.004413696
      5       16          -0.002163496   -0.002035530    0.000176463
      6        6           0.005103922   -0.003194534   -0.003388228
      7        7          -0.000647096   -0.000910494   -0.002610891
      8        7          -0.008367114    0.007774542    0.009416482
      9        7           0.000788287    0.000138020   -0.000173454
     10        6           0.006183235   -0.004649962   -0.002239181
     11        1          -0.001181534    0.000500678    0.000139958
     12        1          -0.002362344   -0.000146368    0.000073688
     13        1          -0.002259021   -0.000578615    0.000173334
     14        1           0.000266407   -0.000235709    0.001849453
     15        1           0.001107461   -0.001116404    0.001747844
     16        1          -0.000633345    0.000565914    0.000442650
     17        1           0.000206119    0.000123952   -0.000516256
 -------------------------------------------------------------------
 Cartesian Forces:  Max     0.051099400 RMS     0.010331259

 GradGradGradGradGradGradGradGradGradGradGradGradGradGradGradGradGradGrad
 Berny optimization.
 Using GEDIIS/GDIIS optimizer.
 FormGI is forming the generalized inverse of G from B-inverse, IUseBI=4.
 Internal  Forces:  Max     0.046219801 RMS     0.005928365
 Search for a local minimum.
 Step number   2 out of a maximum of   81
 All quantities printed in internal units (Hartrees-Bohrs-Radians)
 Mixed Optimization -- RFO/linear search
 Update second derivatives using D2CorX and points    1    2
 DE= -1.85D-02 DEPred=-2.26D-02 R= 8.17D-01
 TightC=F SS=  1.41D+00  RLast= 2.80D-01 DXNew= 5.0454D-01 8.4129D-01
 Trust test= 8.17D-01 RLast= 2.80D-01 DXMaxT set to 5.05D-01
 ITU=  1  0
 Use linear search instead of GDIIS.
     Eigenvalues ---    0.00230   0.00395   0.00501   0.00503   0.00557
     Eigenvalues ---    0.00557   0.01206   0.01920   0.02023   0.02127
     Eigenvalues ---    0.02217   0.02292   0.04451   0.05364   0.05676
     Eigenvalues ---    0.06038   0.11580   0.13965   0.15972   0.16000
     Eigenvalues ---    0.16000   0.16009   0.22005   0.22315   0.23496
     Eigenvalues ---    0.24266   0.24375   0.24949   0.25004   0.29523
     Eigenvalues ---    0.29805   0.31698   0.34041   0.34098   0.34157
     Eigenvalues ---    0.34248   0.35919   0.37785   0.41557   0.44740
     Eigenvalues ---    0.51747   0.52010   0.56574   0.57599   0.89999
 RFO step:  Lambda=-3.08959115D-03 EMin= 2.30192701D-03
 Quartic linear search produced a step of -0.15539.
 Iteration  1 RMS(Cart)=  0.18384580 RMS(Int)=  0.00518950
 Iteration  2 RMS(Cart)=  0.01349451 RMS(Int)=  0.00009775
 Iteration  3 RMS(Cart)=  0.00010520 RMS(Int)=  0.00008933
 Iteration  4 RMS(Cart)=  0.00000001 RMS(Int)=  0.00008933
 Variable       Old X    -DE/DX   Delta X   Delta X   Delta X     New X
                                 (Linear)    (Quad)   (Total)
    R1        2.24134   0.04622   0.03459   0.00697   0.04156   2.28291
    R2        2.01682  -0.00121  -0.00046  -0.00187  -0.00233   2.01449
    R3        2.78415  -0.00489   0.01371  -0.03912  -0.02541   2.75874
    R4        2.90007   0.00124  -0.00194   0.00717   0.00523   2.90530
    R5        2.06970   0.00076   0.00031   0.00130   0.00161   2.07131
    R6        2.07676   0.00023  -0.00065   0.00173   0.00108   2.07785
    R7        3.45887   0.00197  -0.00179   0.01039   0.00860   3.46747
    R8        2.07024  -0.00059   0.00006  -0.00155  -0.00149   2.06875
    R9        2.06322  -0.00011   0.00092  -0.00190  -0.00099   2.06224
   R10        3.32297   0.00236  -0.00634   0.01787   0.01153   3.33450
   R11        2.53530  -0.00543  -0.00187  -0.00457  -0.00644   2.52886
   R12        2.66057   0.00300  -0.00142   0.00894   0.00750   2.66807
   R13        2.52404  -0.00400   0.00253  -0.01054  -0.00798   2.51606
   R14        2.52281  -0.00379   0.00314  -0.01133  -0.00818   2.51463
   R15        1.90889  -0.00094   0.00210  -0.00522  -0.00312   1.90577
   R16        2.53072  -0.00673  -0.00017  -0.00940  -0.00959   2.52113
   R17        2.04062  -0.00041   0.00023  -0.00135  -0.00113   2.03949
    A1        1.96943   0.00043   0.00010   0.00423   0.00431   1.97374
    A2        1.90018   0.00115   0.00138  -0.00092   0.00045   1.90062
    A3        1.88775   0.00200  -0.00174   0.02728   0.02550   1.91325
    A4        1.92583  -0.00208   0.00217  -0.02218  -0.02012   1.90570
    A5        1.90594  -0.00200  -0.00111  -0.00484  -0.00607   1.89987
    A6        1.87183   0.00060  -0.00098  -0.00294  -0.00414   1.86769
    A7        1.98732   0.00117  -0.00237   0.00415   0.00155   1.98887
    A8        1.90661   0.00077  -0.00298   0.02678   0.02368   1.93029
    A9        1.93900   0.00025   0.00081  -0.00681  -0.00638   1.93262
   A10        1.84530  -0.00080   0.00089   0.00113   0.00195   1.84725
   A11        1.90694  -0.00215   0.00550  -0.04560  -0.04032   1.86661
   A12        1.87307   0.00073  -0.00206   0.02273   0.02058   1.89365
   A13        1.76052  -0.00130   0.00160  -0.00758  -0.00598   1.75454
   A14        2.16596  -0.00295  -0.00134  -0.00800  -0.00938   2.15658
   A15        2.22454   0.00170  -0.00259   0.00999   0.00737   2.23191
   A16        1.89247   0.00125   0.00390  -0.00161   0.00222   1.89469
   A17        1.80606  -0.00549  -0.00634  -0.00678  -0.01310   1.79296
   A18        2.02271   0.00810   0.00631   0.01381   0.02013   2.04284
   A19        2.12906  -0.00421  -0.00290  -0.00835  -0.01126   2.11780
   A20        2.13138  -0.00389  -0.00340  -0.00544  -0.00885   2.12253
   A21        1.80447  -0.00474  -0.00634  -0.00541  -0.01179   1.79268
   A22        1.89882   0.00089   0.00248  -0.00024   0.00218   1.90100
   A23        2.26550  -0.00036   0.00035  -0.00343  -0.00307   2.26244
   A24        2.11886  -0.00053  -0.00284   0.00366   0.00084   2.11969
   A25        3.12497   0.00079   0.00153   0.03712   0.03864   3.16361
   A26        3.11711   0.00131   0.00380   0.03010   0.03391   3.15102
   A27        3.14394   0.00045   0.00050   0.03133   0.03182   3.17576
   A28        3.15881  -0.00119  -0.00268  -0.04933  -0.05201   3.10680
    D1        1.22403  -0.00138   0.00633  -0.12633  -0.12001   1.10403
    D2       -3.00092  -0.00112   0.00403  -0.10392  -0.09991  -3.10083
    D3       -0.93787   0.00040   0.00015  -0.06334  -0.06319  -1.00106
    D4       -0.90592  -0.00165   0.00284  -0.11194  -0.10904  -1.01496
    D5        1.15232  -0.00139   0.00054  -0.08953  -0.08894   1.06338
    D6       -3.06782   0.00013  -0.00333  -0.04895  -0.05222  -3.12004
    D7       -2.95920   0.00005   0.00345  -0.09243  -0.08903  -3.04823
    D8       -0.90096   0.00030   0.00115  -0.07002  -0.06893  -0.96990
    D9        1.16209   0.00182  -0.00273  -0.02944  -0.03221   1.12987
   D10       -1.50145   0.00098  -0.00580   0.22556   0.21957  -1.28189
   D11        2.68855  -0.00010  -0.00138   0.18925   0.18784   2.87639
   D12        0.67768   0.00049  -0.00214   0.18396   0.18205   0.85973
   D13       -0.77731  -0.00027   0.00036  -0.02671  -0.02636  -0.80367
   D14        2.38932  -0.00047   0.00187  -0.04874  -0.04687   2.34246
   D15       -3.13476  -0.00017   0.00081  -0.01311  -0.01224   3.13618
   D16       -0.01412   0.00002  -0.00055   0.00548   0.00493  -0.00919
   D17        3.12299   0.00028   0.00079   0.00265   0.00348   3.12648
   D18       -0.02006  -0.00017   0.00027  -0.00659  -0.00629  -0.02635
   D19        0.00326   0.00016   0.00217  -0.01646  -0.01439  -0.01113
   D20       -3.13979  -0.00029   0.00165  -0.02570  -0.02416   3.11923
   D21        0.02179  -0.00006  -0.00120   0.00784   0.00673   0.02852
   D22       -3.12781   0.00011  -0.00061   0.01041   0.00980  -3.11801
   D23       -0.01979   0.00014   0.00245  -0.01781  -0.01544  -0.03523
   D24        3.12982  -0.00003   0.00186  -0.02037  -0.01851   3.11131
   D25        0.00915  -0.00023  -0.00263   0.01963   0.01684   0.02600
   D26       -3.13112   0.00017  -0.00218   0.02795   0.02567  -3.10545
         Item               Value     Threshold  Converged?
 Maximum Force            0.046220     0.000450     NO 
 RMS     Force            0.005928     0.000300     NO 
 Maximum Displacement     0.618319     0.001800     NO 
 RMS     Displacement     0.188827     0.001200     NO 
 Predicted change in Energy=-2.010199D-03
 GradGradGradGradGradGradGradGradGradGradGradGradGradGradGradGradGradGrad

                          Input orientation:                          
 ---------------------------------------------------------------------
 Center     Atomic      Atomic             Coordinates (Angstroms)
 Number     Number       Type             X           Y           Z
 ---------------------------------------------------------------------
      1          6           0        0.829360   -0.338043    0.185660
      2          6           0       -0.367529   -0.209666    0.083725
      3          6           0       -1.812133   -0.017453   -0.002168
      4          6           0       -2.603104   -1.330484    0.116026
      5         16           0       -2.405470   -2.176334    1.732306
      6          6           0       -0.764411   -2.803970    1.569192
      7          7           0       -0.317992   -3.432427    0.475314
      8          7           0        0.943996   -3.713765    0.793070
      9          7           0        1.356136   -3.357399    2.007102
     10          6           0        0.281803   -2.751672    2.515820
     11          1           0        1.884892   -0.423731    0.307771
     12          1           0       -2.127330    0.665985    0.794689
     13          1           0       -2.064318    0.464505   -0.957745
     14          1           0       -3.676287   -1.144917    0.005147
     15          1           0       -2.292878   -2.038978   -0.653849
     16          1           0        1.557234   -4.180289    0.142423
     17          1           0        0.298290   -2.308571    3.499778
 ---------------------------------------------------------------------
                    Distance matrix (angstroms):
                    1          2          3          4          5
     1  C    0.000000
     2  C    1.208063   0.000000
     3  C    2.667498   1.459865   0.000000
     4  C    3.573738   2.501015   1.537418   0.000000
     5  S    4.029337   3.277012   2.832175   1.834907   0.000000
     6  C    3.245776   3.015716   3.366240   2.768329   1.764542
     7  N    3.312933   3.246842   3.757990   3.125538   2.741416
     8  N    3.431849   3.808146   4.678822   4.326701   3.803259
     9  N    3.565341   4.071686   5.022981   4.833233   3.952228
    10  C    3.399275   3.577501   4.266238   4.012664   2.857681
    11  H    1.066021   2.273636   3.732174   4.582693   4.848518
    12  H    3.181353   2.090247   1.096092   2.161673   3.005872
    13  H    3.213228   2.101966   1.099549   2.159921   3.785075
    14  H    4.580883   3.439295   2.178600   1.094737   2.379469
    15  H    3.653262   2.756332   2.177697   1.091289   2.392755
    16  H    3.910821   4.412936   5.357494   5.042867   4.716629
    17  H    3.892094   4.064251   4.686868   4.563389   3.232919
                    6          7          8          9         10
     6  C    0.000000
     7  N    1.338214   0.000000
     8  N    2.085365   1.331441   0.000000
     9  N    2.234898   2.270399   1.330687   0.000000
    10  C    1.411880   2.233125   2.081343   1.334126   0.000000
    11  H    3.778297   3.732696   3.456172   3.431285   3.586738
    12  H    3.807623   4.491401   5.349323   5.458214   4.521791
    13  H    4.331062   4.504374   5.438129   5.924253   5.283345
    14  H    3.698339   4.090465   5.344793   5.850486   4.954958
    15  H    2.804164   2.667749   3.921204   4.704700   4.145324
    16  H    3.052861   2.046115   1.008487   2.048076   3.049702
    17  H    2.258742   3.284850   3.117334   2.108829   1.079251
                   11         12         13         14         15
    11  H    0.000000
    12  H    4.185988   0.000000
    13  H    4.241080   1.765103   0.000000
    14  H    5.615906   2.510380   2.473023   0.000000
    15  H    4.581211   3.072863   2.532196   1.774103   0.000000
    16  H    3.774444   6.122731   5.991671   6.051617   4.476899
    17  H    4.032225   4.695650   5.756855   5.418837   4.903004
                   16         17
    16  H    0.000000
    17  H    4.044762   0.000000
 Stoichiometry    C6H7N3S
 Framework group  C1[X(C6H7N3S)]
 Deg. of freedom    45
 Full point group                 C1      NOp   1
 Largest Abelian subgroup         C1      NOp   1
 Largest concise Abelian subgroup C1      NOp   1
                         Standard orientation:                         
 ---------------------------------------------------------------------
 Center     Atomic      Atomic             Coordinates (Angstroms)
 Number     Number       Type             X           Y           Z
 ---------------------------------------------------------------------
      1          6           0        0.152516    2.402862   -0.356879
      2          6           0        1.133945    1.717996   -0.192045
      3          6           0        2.331591    0.896490   -0.043797
      4          6           0        2.053757   -0.458925    0.626512
      5         16           0        0.934393   -1.549824   -0.334655
      6          6           0       -0.610521   -0.738990   -0.071220
      7          7           0       -1.028036   -0.313753    1.126975
      8          7           0       -2.212221    0.228064    0.849709
      9          7           0       -2.624383    0.167417   -0.414084
     10          6           0       -1.601807   -0.430330   -1.028030
     11          1           0       -0.704648    3.008459   -0.543757
     12          1           0        2.769714    0.725681   -1.033892
     13          1           0        3.080742    1.439686    0.550105
     14          1           0        2.983236   -1.022937    0.754612
     15          1           0        1.596132   -0.318305    1.607184
     16          1           0       -2.772210    0.660822    1.568165
     17          1           0       -1.607663   -0.602924   -2.093375
 ---------------------------------------------------------------------
 Rotational constants (GHZ):           1.7820132           1.0548991           0.7989039
 Standard basis: 6-31G(d) (6D, 7F)
 There are   168 symmetry adapted cartesian basis functions of A   symmetry.
 There are   168 symmetry adapted basis functions of A   symmetry.
   168 basis functions,   332 primitive gaussians,   168 cartesian basis functions
    40 alpha electrons       40 beta electrons
       nuclear repulsion energy       584.2564091455 Hartrees.
 NAtoms=   17 NActive=   17 NUniq=   17 SFac= 1.00D+00 NAtFMM=   60 NAOKFM=F Big=F
 Integral buffers will be    131072 words long.
 Raffenetti 2 integral format.
 Two-electron integral symmetry is turned on.
 Nuclear repulsion after empirical dispersion term =      584.2213052527 Hartrees.
 One-electron integrals computed using PRISM.
 NBasis=   168 RedAO= T EigKep=  4.84D-04  NBF=   168
 NBsUse=   168 1.00D-06 EigRej= -1.00D+00 NBFU=   168
 Initial guess from the checkpoint file:  "JID_0.chk"
 B after Tr=    -0.000000    0.000000    0.000000
         Rot=    0.996674    0.016228   -0.011739   -0.078990 Ang=   9.35 deg.
 ExpMin= 1.17D-01 ExpMax= 2.19D+04 ExpMxC= 3.30D+03 IAcc=2 IRadAn=         4 AccDes= 0.00D+00
 Harris functional with IExCor=  402 and IRadAn=       4 diagonalized for initial guess.
 HarFok:  IExCor=  402 AccDes= 0.00D+00 IRadAn=         4 IDoV= 1 UseB2=F ITyADJ=14
 ICtDFT=  3500011 ScaDFX=  1.000000  1.000000  1.000000  1.000000
 FoFCou: FMM=F IPFlag=           0 FMFlag=      100000 FMFlg1=           0
         NFxFlg=           0 DoJE=T BraDBF=F KetDBF=T FulRan=T
         wScrn=  0.000000 ICntrl=       500 IOpCl=  0 I1Cent=   200000004 NGrid=           0
         NMat0=    1 NMatS0=      1 NMatT0=    0 NMatD0=    1 NMtDS0=    0 NMtDT0=    0
 Petite list used in FoFCou.
 Keep R1 ints in memory in canonical form, NReq=104755136.
 Requested convergence on RMS density matrix=1.00D-08 within  32 cycles.
 Requested convergence on MAX density matrix=1.00D-06.
 Requested convergence on             energy=1.00D-06.
 No special actions if energy rises.
 Integral accuracy reduced to 1.0D-05 until final iterations.
 Initial convergence to 1.0D-05 achieved.  Increase integral accuracy.
 SCF Done:  E(RB3LYP) =  -795.209982093     A.U. after   13 cycles
            NFock= 13  Conv=0.82D-08     -V/T= 2.0064
 QCSCF skips out because SCF is already converged.
 Calling FoFJK, ICntrl=      2127 FMM=F ISym2X=0 I1Cent= 0 IOpClX= 0 NMat=1 NMatS=1 NMatT=0.
 ***** Axes restored to original set *****
 -------------------------------------------------------------------
 Center     Atomic                   Forces (Hartrees/Bohr)
 Number     Number              X              Y              Z
 -------------------------------------------------------------------
      1        6          -0.002914682    0.003722909   -0.001173055
      2        6           0.006958720    0.004286419    0.000212345
      3        6          -0.000538876   -0.001816307    0.000443893
      4        6           0.002059457   -0.001234106   -0.002799339
      5       16          -0.001534489   -0.000323748    0.002510961
      6        6           0.000403415   -0.000772344    0.000671745
      7        7          -0.000184885   -0.001846951    0.001627697
      8        7          -0.001417159   -0.001322995   -0.001329931
      9        7           0.000320402    0.003774573   -0.001137042
     10        6          -0.001211372   -0.002403985    0.001816333
     11        1          -0.000216500   -0.001567779   -0.000543345
     12        1          -0.000980750    0.000824643    0.000019364
     13        1          -0.000597164   -0.000507932    0.000014118
     14        1           0.000741944    0.000122297    0.001182878
     15        1          -0.000753030    0.000343175   -0.001409131
     16        1           0.000314305   -0.000888380   -0.000398568
     17        1          -0.000449336   -0.000389490    0.000291077
 -------------------------------------------------------------------
 Cartesian Forces:  Max     0.006958720 RMS     0.001809148

 GradGradGradGradGradGradGradGradGradGradGradGradGradGradGradGradGradGrad
 Berny optimization.
 Using GEDIIS/GDIIS optimizer.
 FormGI is forming the generalized inverse of G from B-inverse, IUseBI=4.
 Internal  Forces:  Max     0.015659855 RMS     0.003574954
 Search for a local minimum.
 Step number   3 out of a maximum of   81
 All quantities printed in internal units (Hartrees-Bohrs-Radians)
 Mixed Optimization -- RFO/linear search
 Update second derivatives using D2CorX and points    1    2    3
 DE= -1.99D-04 DEPred=-2.01D-03 R= 9.88D-02
 Trust test= 9.88D-02 RLast= 4.48D-01 DXMaxT set to 2.52D-01
 ITU= -1  1  0
 Use linear search instead of GDIIS.
     Eigenvalues ---    0.00306   0.00409   0.00499   0.00536   0.00556
     Eigenvalues ---    0.00979   0.01125   0.01936   0.02023   0.02122
     Eigenvalues ---    0.02257   0.02336   0.04702   0.05149   0.05482
     Eigenvalues ---    0.06536   0.11192   0.13975   0.14856   0.16000
     Eigenvalues ---    0.16006   0.16008   0.19287   0.22452   0.23668
     Eigenvalues ---    0.24095   0.24584   0.24818   0.26440   0.29126
     Eigenvalues ---    0.31557   0.34023   0.34047   0.34134   0.34219
     Eigenvalues ---    0.35773   0.35995   0.37782   0.41451   0.44773
     Eigenvalues ---    0.51468   0.51914   0.56269   0.57200   0.95162
 RFO step:  Lambda=-3.56437938D-03 EMin= 3.06232524D-03
 Quartic linear search produced a step of -0.45268.
 Maximum step size (   0.252) exceeded in Quadratic search.
    -- Step size scaled by   0.881
 Iteration  1 RMS(Cart)=  0.26536356 RMS(Int)=  0.01199325
 Iteration  2 RMS(Cart)=  0.02957136 RMS(Int)=  0.00020802
 Iteration  3 RMS(Cart)=  0.00043754 RMS(Int)=  0.00012555
 Iteration  4 RMS(Cart)=  0.00000015 RMS(Int)=  0.00012555
 Variable       Old X    -DE/DX   Delta X   Delta X   Delta X     New X
                                 (Linear)    (Quad)   (Total)
    R1        2.28291  -0.00347  -0.01881   0.02251   0.00369   2.28660
    R2        2.01449  -0.00015   0.00106  -0.00312  -0.00207   2.01242
    R3        2.75874   0.00285   0.01150  -0.04637  -0.03487   2.72387
    R4        2.90530   0.00517  -0.00237   0.01590   0.01354   2.91883
    R5        2.07131   0.00081  -0.00073   0.00295   0.00222   2.07354
    R6        2.07785  -0.00010  -0.00049   0.00209   0.00160   2.07945
    R7        3.46747   0.00509  -0.00389   0.02187   0.01797   3.48544
    R8        2.06875  -0.00083   0.00067  -0.00314  -0.00247   2.06629
    R9        2.06224   0.00056   0.00045  -0.00171  -0.00127   2.06097
   R10        3.33450  -0.00085  -0.00522   0.02182   0.01660   3.35110
   R11        2.52886  -0.00000   0.00291  -0.00760  -0.00470   2.52415
   R12        2.66807  -0.00083  -0.00339   0.01168   0.00828   2.67635
   R13        2.51606  -0.00131   0.00361  -0.01521  -0.01160   2.50446
   R14        2.51463   0.00119   0.00370  -0.01439  -0.01067   2.50396
   R15        1.90577   0.00086   0.00141  -0.00598  -0.00456   1.90120
   R16        2.52113   0.00023   0.00434  -0.01371  -0.00936   2.51178
   R17        2.03949   0.00010   0.00051  -0.00177  -0.00126   2.03823
    A1        1.97374   0.01566  -0.00195   0.03391   0.03205   2.00579
    A2        1.90062  -0.00416  -0.00020   0.00316   0.00313   1.90375
    A3        1.91325  -0.00564  -0.01154   0.02588   0.01434   1.92759
    A4        1.90570  -0.00233   0.00911  -0.03223  -0.02325   1.88246
    A5        1.89987  -0.00458   0.00275  -0.02158  -0.01905   1.88081
    A6        1.86769   0.00030   0.00187  -0.01178  -0.01044   1.85725
    A7        1.98887   0.01156  -0.00070   0.02618   0.02566   2.01453
    A8        1.93029  -0.00605  -0.01072   0.00970  -0.00086   1.92942
    A9        1.93262   0.00040   0.00289   0.00485   0.00798   1.94060
   A10        1.84725  -0.00527  -0.00088  -0.02157  -0.02242   1.82482
   A11        1.86661  -0.00214   0.01825  -0.04563  -0.02737   1.83924
   A12        1.89365   0.00109  -0.00931   0.02459   0.01508   1.90873
   A13        1.75454   0.00904   0.00271   0.00320   0.00591   1.76045
   A14        2.15658  -0.00158   0.00424  -0.01492  -0.01064   2.14593
   A15        2.23191   0.00086  -0.00334   0.01432   0.01101   2.24292
   A16        1.89469   0.00071  -0.00100   0.00061  -0.00040   1.89429
   A17        1.79296   0.00050   0.00593  -0.01314  -0.00725   1.78571
   A18        2.04284  -0.00105  -0.00911   0.02298   0.01386   2.05671
   A19        2.11780   0.00047   0.00510  -0.01354  -0.00846   2.10935
   A20        2.12253   0.00059   0.00401  -0.00940  -0.00540   2.11713
   A21        1.79268   0.00089   0.00534  -0.00986  -0.00450   1.78818
   A22        1.90100  -0.00101  -0.00099  -0.00048  -0.00158   1.89942
   A23        2.26244   0.00021   0.00139  -0.00454  -0.00326   2.25917
   A24        2.11969   0.00079  -0.00038   0.00469   0.00419   2.12388
   A25        3.16361  -0.00303  -0.01749  -0.06102  -0.07851   3.08510
   A26        3.15102   0.00297  -0.01535   0.20602   0.19067   3.34169
   A27        3.17576  -0.00140  -0.01441  -0.01109  -0.02550   3.15026
   A28        3.10680   0.00329   0.02354   0.05234   0.07589   3.18269
    D1        1.10403   0.00466   0.05432  -0.08884  -0.03453   1.06949
    D2       -3.10083   0.00137   0.04523  -0.09191  -0.04673   3.13563
    D3       -1.00106  -0.00098   0.02860  -0.05149  -0.02295  -1.02401
    D4       -1.01496   0.00116   0.04936  -0.09258  -0.04299  -1.05795
    D5        1.06338  -0.00213   0.04026  -0.09564  -0.05519   1.00819
    D6       -3.12004  -0.00448   0.02364  -0.05522  -0.03141   3.13173
    D7       -3.04823   0.00466   0.04030  -0.04854  -0.00837  -3.05660
    D8       -0.96990   0.00138   0.03120  -0.05161  -0.02056  -0.99046
    D9        1.12987  -0.00097   0.01458  -0.01119   0.00321   1.13309
   D10       -1.28189  -0.00821  -0.09939  -0.08347  -0.18273  -1.46462
   D11        2.87639  -0.00400  -0.08503  -0.09650  -0.18124   2.69514
   D12        0.85973  -0.00176  -0.08241  -0.09337  -0.17619   0.68354
   D13       -0.80367  -0.00237   0.01193  -0.08476  -0.07284  -0.87651
   D14        2.34246  -0.00097   0.02122  -0.08794  -0.06672   2.27574
   D15        3.13618   0.00005   0.00554  -0.01365  -0.00814   3.12804
   D16       -0.00919  -0.00111  -0.00223  -0.01096  -0.01316  -0.02234
   D17        3.12648   0.00077  -0.00158   0.01654   0.01492   3.14140
   D18       -0.02635  -0.00050   0.00285  -0.01741  -0.01454  -0.04089
   D19       -0.01113   0.00201   0.00651   0.01379   0.02036   0.00923
   D20        3.11923   0.00073   0.01094  -0.02017  -0.00910   3.11013
   D21        0.02852  -0.00015  -0.00305   0.00565   0.00256   0.03108
   D22       -3.11801   0.00015  -0.00444   0.01432   0.00991  -3.10810
   D23       -0.03523   0.00135   0.00699   0.00261   0.00970  -0.02553
   D24        3.11131   0.00105   0.00838  -0.00608   0.00233   3.11364
   D25        0.02600  -0.00193  -0.00762  -0.00999  -0.01752   0.00847
   D26       -3.10545  -0.00077  -0.01162   0.02073   0.00927  -3.09619
         Item               Value     Threshold  Converged?
 Maximum Force            0.015660     0.000450     NO 
 RMS     Force            0.003575     0.000300     NO 
 Maximum Displacement     1.369237     0.001800     NO 
 RMS     Displacement     0.284739     0.001200     NO 
 Predicted change in Energy=-3.057857D-03
 GradGradGradGradGradGradGradGradGradGradGradGradGradGradGradGradGradGrad

                          Input orientation:                          
 ---------------------------------------------------------------------
 Center     Atomic      Atomic             Coordinates (Angstroms)
 Number     Number       Type             X           Y           Z
 ---------------------------------------------------------------------
      1          6           0        0.817595    0.202338    0.181073
      2          6           0       -0.379134    0.024026    0.167501
      3          6           0       -1.806731    0.042166   -0.030752
      4          6           0       -2.501103   -1.330195    0.111379
      5         16           0       -2.345017   -2.128952    1.766522
      6          6           0       -0.765047   -2.918607    1.608975
      7          7           0       -0.441078   -3.695062    0.571515
      8          7           0        0.804757   -4.044530    0.858201
      9          7           0        1.323724   -3.607490    1.996357
     10          6           0        0.336222   -2.872922    2.498308
     11          1           0        1.877612    0.300838    0.208138
     12          1           0       -2.261198    0.726171    0.696982
     13          1           0       -2.051397    0.440627   -1.026866
     14          1           0       -3.578738   -1.233227   -0.046404
     15          1           0       -2.095383   -2.052582   -0.597844
     16          1           0        1.336770   -4.621325    0.228558
     17          1           0        0.448406   -2.328483    3.422615
 ---------------------------------------------------------------------
                    Distance matrix (angstroms):
                    1          2          3          4          5
     1  C    0.000000
     2  C    1.210017   0.000000
     3  C    2.637729   1.441411   0.000000
     4  C    3.656129   2.517899   1.544581   0.000000
     5  S    4.236824   3.325188   2.869442   1.844417   0.000000
     6  C    3.779412   3.299374   3.541184   2.789218   1.773325
     7  N    4.114174   3.741481   4.024253   3.169862   2.739658
     8  N    4.300529   4.293229   4.930638   4.342127   3.796783
     9  N    4.250436   4.408214   5.218133   4.834100   3.962141
    10  C    3.880531   3.786384   4.414310   4.015950   2.877159
    11  H    1.064927   2.274022   3.701129   4.673626   5.114981
    12  H    3.165364   2.077383   1.097269   2.151540   3.050027
    13  H    3.122021   2.096791   1.100398   2.152591   3.806832
    14  H    4.630371   3.444402   2.183319   1.093432   2.368774
    15  H    3.765211   2.800636   2.189266   1.090619   2.378735
    16  H    4.851754   4.952509   5.630009   5.057128   4.704553
    17  H    4.129038   4.100597   4.757243   4.545379   3.253562
                    6          7          8          9         10
     6  C    0.000000
     7  N    1.335725   0.000000
     8  N    2.072595   1.325301   0.000000
     9  N    2.233292   2.269883   1.325040   0.000000
    10  C    1.416261   2.234422   2.069334   1.329175   0.000000
    11  H    4.394408   4.634175   4.522811   4.333537   4.206365
    12  H    4.044082   4.782873   5.673240   5.772405   4.790077
    13  H    4.459463   4.717189   5.641607   6.076065   5.395108
    14  H    3.673913   4.035761   5.285524   5.817571   4.948846
    15  H    2.718427   2.608039   3.807721   4.564856   4.021420
    16  H    3.036847   2.033796   1.006072   2.037926   3.034761
    17  H    2.260532   3.284432   3.106127   2.106242   1.078583
                   11         12         13         14         15
    11  H    0.000000
    12  H    4.189227   0.000000
    13  H    4.120908   1.759888   0.000000
    14  H    5.673614   2.475434   2.468980   0.000000
    15  H    4.687524   3.070103   2.530234   1.782069   0.000000
    16  H    4.951829   6.462237   6.219255   5.976373   4.365898
    17  H    4.391905   4.909373   5.806451   5.426930   4.765614
                   16         17
    16  H    0.000000
    17  H    4.030920   0.000000
 Stoichiometry    C6H7N3S
 Framework group  C1[X(C6H7N3S)]
 Deg. of freedom    45
 Full point group                 C1      NOp   1
 Largest Abelian subgroup         C1      NOp   1
 Largest concise Abelian subgroup C1      NOp   1
                         Standard orientation:                         
 ---------------------------------------------------------------------
 Center     Atomic      Atomic             Coordinates (Angstroms)
 Number     Number       Type             X           Y           Z
 ---------------------------------------------------------------------
      1          6           0        1.145529    2.597846   -0.263614
      2          6           0        1.674175    1.522750   -0.093780
      3          6           0        2.539572    0.402757    0.178928
      4          6           0        1.818450   -0.873844    0.664729
      5         16           0        0.603339   -1.596318   -0.519927
      6          6           0       -0.833388   -0.620460   -0.161880
      7          7           0       -1.293133   -0.431921    1.077978
      8          7           0       -2.341517    0.352851    0.874394
      9          7           0       -2.641971    0.672121   -0.376016
     10          6           0       -1.682084    0.064114   -1.065689
     11          1           0        0.626651    3.517278   -0.403184
     12          1           0        3.095625    0.148977   -0.732334
     13          1           0        3.290663    0.672906    0.936397
     14          1           0        2.538629   -1.676924    0.843615
     15          1           0        1.253975   -0.684214    1.578434
     16          1           0       -2.887835    0.694837    1.646897
     17          1           0       -1.608303    0.157898   -2.137651
 ---------------------------------------------------------------------
 Rotational constants (GHZ):           1.6640226           0.9564250           0.7306968
 Standard basis: 6-31G(d) (6D, 7F)
 There are   168 symmetry adapted cartesian basis functions of A   symmetry.
 There are   168 symmetry adapted basis functions of A   symmetry.
[...]
    39    C    2  pz     Ryd( 5p)     0.00003       2.69627
    40    C    2  dxy    Ryd( 3d)     0.00029       2.90989
    41    C    2  dxz    Ryd( 3d)     0.00031       1.85268
    42    C    2  dyz    Ryd( 3d)     0.00025       1.87426
    43    C    2  dx2y2  Ryd( 3d)     0.00048       2.10933
    44    C    2  dz2    Ryd( 3d)     0.00010       2.07701
 
    45    C    3  S      Cor( 1S)     0.99955      -9.94886
    46    C    3  S      Val( 2S)     0.51383      -0.13591
    47    C    3  S      Ryd( 3S)     0.00249       1.50175
    48    C    3  S      Ryd( 4S)     0.00144       2.67558
    49    C    3  S      Ryd( 5S)     0.00002      15.84241
    50    C    3  px     Val( 2p)     0.57234       0.00142
    51    C    3  px     Ryd( 4p)     0.00114       2.15704
    52    C    3  px     Ryd( 3p)     0.00064       1.83204
    53    C    3  px     Ryd( 5p)     0.00002       3.22580
    54    C    3  py     Val( 2p)     0.53599       0.00810
    55    C    3  py     Ryd( 4p)     0.00099       1.76952
    56    C    3  py     Ryd( 3p)     0.00076       1.66396
    57    C    3  py     Ryd( 5p)     0.00002       3.17470
    58    C    3  pz     Val( 2p)     0.60303       0.00119
    59    C    3  pz     Ryd( 3p)     0.00225       0.80766
    60    C    3  pz     Ryd( 4p)     0.00030       1.15004
    61    C    3  pz     Ryd( 5p)     0.00001       2.95285
    62    C    3  dxy    Ryd( 3d)     0.00054       2.63666
    63    C    3  dxz    Ryd( 3d)     0.00047       2.26167
    64    C    3  dyz    Ryd( 3d)     0.00031       2.13430
    65    C    3  dx2y2  Ryd( 3d)     0.00026       2.07275
    66    C    3  dz2    Ryd( 3d)     0.00037       2.23598
 
    67    C    4  S      Cor( 1S)     0.99958      -9.97606
    68    C    4  S      Val( 2S)     0.55416      -0.21529
    69    C    4  S      Ryd( 3S)     0.00098       1.38143
    70    C    4  S      Ryd( 4S)     0.00145       1.84913
    71    C    4  S      Ryd( 5S)     0.00002      19.38691
    72    C    4  px     Val( 2p)     0.57010      -0.02366
    73    C    4  px     Ryd( 3p)     0.00273       0.95616
    74    C    4  px     Ryd( 4p)     0.00092       0.95991
    75    C    4  px     Ryd( 5p)     0.00002       2.87839
    76    C    4  py     Val( 2p)     0.53710      -0.01400
    77    C    4  py     Ryd( 4p)     0.00171       2.06802
    78    C    4  py     Ryd( 3p)     0.00062       1.32248
    79    C    4  py     Ryd( 5p)     0.00005       2.89063
    80    C    4  pz     Val( 2p)     0.56436      -0.02145
    81    C    4  pz     Ryd( 4p)     0.00065       1.16832
    82    C    4  pz     Ryd( 3p)     0.00060       1.16553
    83    C    4  pz     Ryd( 5p)     0.00003       2.86496
    84    C    4  dxy    Ryd( 3d)     0.00080       2.25018
    85    C    4  dxz    Ryd( 3d)     0.00068       2.05277
    86    C    4  dyz    Ryd( 3d)     0.00044       2.03104
    87    C    4  dx2y2  Ryd( 3d)     0.00025       1.98673
    88    C    4  dz2    Ryd( 3d)     0.00055       2.10899
 
    89    S    5  S      Cor( 1S)     1.00000     -87.61005
    90    S    5  S      Cor( 2S)     0.99965      -8.71863
    91    S    5  S      Val( 3S)     0.82795      -0.60342
    92    S    5  S      Ryd( 5S)     0.00172       3.04298
    93    S    5  S      Ryd( 4S)     0.00009       1.27129
    94    S    5  S      Ryd( 6S)     0.00024       5.47907
    95    S    5  S      Ryd( 7S)     0.00000     182.31140
    96    S    5  px     Cor( 2p)     0.99994      -5.78918
    97    S    5  px     Val( 3p)     0.46526      -0.05320
    98    S    5  px     Ryd( 4p)     0.00332       0.94865
    99    S    5  px     Ryd( 5p)     0.00014       1.47765
   100    S    5  px     Ryd( 6p)     0.00014       2.66020
   101    S    5  px     Ryd( 7p)     0.00000      16.78349
   102    S    5  py     Cor( 2p)     0.99997      -5.78516
   103    S    5  py     Val( 3p)     0.75771      -0.10603
   104    S    5  py     Ryd( 4p)     0.00173       0.82907
   105    S    5  py     Ryd( 5p)     0.00009       1.60081
   106    S    5  py     Ryd( 6p)     0.00011       3.02075
   107    S    5  py     Ryd( 7p)     0.00000      17.00685
   108    S    5  pz     Cor( 2p)     0.99997      -5.78390
   109    S    5  pz     Val( 3p)     0.81627      -0.10994
   110    S    5  pz     Ryd( 4p)     0.00228       0.67994
   111    S    5  pz     Ryd( 5p)     0.00008       1.37108
   112    S    5  pz     Ryd( 6p)     0.00008       2.28486
   113    S    5  pz     Ryd( 7p)     0.00000      17.02638
   114    S    5  dxy    Ryd( 3d)     0.00296       1.36835
   115    S    5  dxz    Ryd( 3d)     0.00141       1.27196
   116    S    5  dyz    Ryd( 3d)     0.00131       1.20617
   117    S    5  dx2y2  Ryd( 3d)     0.00162       1.13325
   118    S    5  dz2    Ryd( 3d)     0.00119       1.15783
 
   119    C    6  S      Cor( 1S)     0.99950     -10.00180
   120    C    6  S      Val( 2S)     0.47214      -0.12780
   121    C    6  S      Ryd( 4S)     0.00111       5.34683
   122    C    6  S      Ryd( 3S)     0.00170       0.99282
   123    C    6  S      Ryd( 5S)     0.00005      14.77794
   124    C    6  px     Val( 2p)     0.53654      -0.03979
   125    C    6  px     Ryd( 3p)     0.00331       1.17582
   126    C    6  px     Ryd( 5p)     0.00039       3.76201
   127    C    6  px     Ryd( 4p)     0.00005       2.71646
   128    C    6  py     Val( 2p)     0.53567      -0.03915
   129    C    6  py     Ryd( 3p)     0.00153       0.92720
   130    C    6  py     Ryd( 5p)     0.00025       2.87355
   131    C    6  py     Ryd( 4p)     0.00005       2.69861
   132    C    6  pz     Val( 2p)     0.46842       0.03462
   133    C    6  pz     Ryd( 3p)     0.00585       0.94167
   134    C    6  pz     Ryd( 4p)     0.00022       2.22959
   135    C    6  pz     Ryd( 5p)     0.00006       3.10389
   136    C    6  dxy    Ryd( 3d)     0.00093       2.10906
   137    C    6  dxz    Ryd( 3d)     0.00090       2.50848
   138    C    6  dyz    Ryd( 3d)     0.00065       2.00662
   139    C    6  dx2y2  Ryd( 3d)     0.00069       1.80926
   140    C    6  dz2    Ryd( 3d)     0.00079       2.30670
 
   141    N    7  S      Cor( 1S)     0.99968     -14.05817
   142    N    7  S      Val( 2S)     0.71444      -0.44411
   143    N    7  S      Ryd( 4S)     0.00222       2.57966
   144    N    7  S      Ryd( 3S)     0.00046       1.77853
   145    N    7  S      Ryd( 5S)     0.00000      33.76857
   146    N    7  px     Val( 2p)     0.54138      -0.05219
   147    N    7  px     Ryd( 3p)     0.00221       1.12997
   148    N    7  px     Ryd( 4p)     0.00047       1.81214
   149    N    7  px     Ryd( 5p)     0.00002       3.01198
   150    N    7  py     Val( 2p)     0.57597      -0.07561
   151    N    7  py     Ryd( 3p)     0.00140       0.82670
   152    N    7  py     Ryd( 4p)     0.00037       1.08472
   153    N    7  py     Ryd( 5p)     0.00001       3.49952
   154    N    7  pz     Val( 2p)     0.78706      -0.13202
   155    N    7  pz     Ryd( 3p)     0.00237       0.90638
   156    N    7  pz     Ryd( 4p)     0.00076       0.91974
   157    N    7  pz     Ryd( 5p)     0.00002       3.98124
   158    N    7  dxy    Ryd( 3d)     0.00048       2.73101
   159    N    7  dxz    Ryd( 3d)     0.00077       2.67544
   160    N    7  dyz    Ryd( 3d)     0.00086       2.43323
   161    N    7  dx2y2  Ryd( 3d)     0.00054       2.39717
   162    N    7  dz2    Ryd( 3d)     0.00091       2.99327
 
   163    N    8  S      Cor( 1S)     0.99975     -14.15982
   164    N    8  S      Val( 2S)     0.59976      -0.44350
   165    N    8  S      Ryd( 3S)     0.00032       1.35906
   166    N    8  S      Ryd( 4S)     0.00127       1.42204
   167    N    8  S      Ryd( 5S)     0.00002      31.91971
   168    N    8  px     Val( 2p)     0.63257      -0.14591
   169    N    8  px     Ryd( 4p)     0.00293       1.06711
   170    N    8  px     Ryd( 3p)     0.00142       1.05547
   171    N    8  px     Ryd( 5p)     0.00002       3.84449
   172    N    8  py     Val( 2p)     0.70927      -0.16660
   173    N    8  py     Ryd( 3p)     0.00296       0.59998
   174    N    8  py     Ryd( 4p)     0.00062       0.95203
   175    N    8  py     Ryd( 5p)     0.00001       3.81693
   176    N    8  pz     Val( 2p)     0.60387      -0.14235
   177    N    8  pz     Ryd( 4p)     0.00315       1.09707
   178    N    8  pz     Ryd( 3p)     0.00169       1.05663
   179    N    8  pz     Ryd( 5p)     0.00002       3.90340
   180    N    8  dxy    Ryd( 3d)     0.00049       2.71150
   181    N    8  dxz    Ryd( 3d)     0.00103       2.79349
   182    N    8  dyz    Ryd( 3d)     0.00076       2.44800
   183    N    8  dx2y2  Ryd( 3d)     0.00062       2.36424
   184    N    8  dz2    Ryd( 3d)     0.00068       3.02962
 
   185    N    9  S      Cor( 1S)     0.99974     -14.07145
   186    N    9  S      Val( 2S)     0.71729      -0.44984
   187    N    9  S      Ryd( 4S)     0.00249       2.00795
   188    N    9  S      Ryd( 3S)     0.00040       1.61281
   189    N    9  S      Ryd( 5S)     0.00000      34.51510
   190    N    9  px     Val( 2p)     0.74253      -0.12115
   191    N    9  px     Ryd( 4p)     0.00202       0.90625
   192    N    9  px     Ryd( 3p)     0.00032       0.82698
   193    N    9  px     Ryd( 5p)     0.00003       3.69337
   194    N    9  py     Val( 2p)     0.65282      -0.10523
   195    N    9  py     Ryd( 4p)     0.00115       0.78524
   196    N    9  py     Ryd( 3p)     0.00017       0.73037
   197    N    9  py     Ryd( 5p)     0.00001       3.73594
   198    N    9  pz     Val( 2p)     0.51036      -0.03917
   199    N    9  pz     Ryd( 3p)     0.00282       1.22247
   200    N    9  pz     Ryd( 4p)     0.00038       1.86145
   201    N    9  pz     Ryd( 5p)     0.00004       2.87786
   202    N    9  dxy    Ryd( 3d)     0.00078       2.73726
   203    N    9  dxz    Ryd( 3d)     0.00071       2.75404
   204    N    9  dyz    Ryd( 3d)     0.00059       2.44654
   205    N    9  dx2y2  Ryd( 3d)     0.00092       2.41862
   206    N    9  dz2    Ryd( 3d)     0.00063       2.90326
 
   207    C   10  S      Cor( 1S)     0.99953      -9.96475
   208    C   10  S      Val( 2S)     0.46744      -0.08392
   209    C   10  S      Ryd( 3S)     0.00143       2.05451
   210    C   10  S      Ryd( 4S)     0.00043       3.06525
   211    C   10  S      Ryd( 5S)     0.00005      13.93657
   212    C   10  px     Val( 2p)     0.47654       0.02993
   213    C   10  px     Ryd( 3p)     0.00410       1.10026
   214    C   10  px     Ryd( 4p)     0.00018       1.50607
   215    C   10  px     Ryd( 5p)     0.00006       2.41728
   216    C   10  py     Val( 2p)     0.49944      -0.00394
   217    C   10  py     Ryd( 4p)     0.00237       0.86423
   218    C   10  py     Ryd( 3p)     0.00017       0.80102
   219    C   10  py     Ryd( 5p)     0.00005       2.24825
   220    C   10  pz     Val( 2p)     0.57741       0.02896
   221    C   10  pz     Ryd( 3p)     0.00253       1.68839
   222    C   10  pz     Ryd( 5p)     0.00016       2.75592
   223    C   10  pz     Ryd( 4p)     0.00004       2.69662
   224    C   10  dxy    Ryd( 3d)     0.00038       2.13532
   225    C   10  dxz    Ryd( 3d)     0.00055       2.61510
   226    C   10  dyz    Ryd( 3d)     0.00050       2.04443
   227    C   10  dx2y2  Ryd( 3d)     0.00051       1.84107
   228    C   10  dz2    Ryd( 3d)     0.00073       2.48309
 
   229    H   11  S      Val( 1S)     0.38738       0.15983
   230    H   11  S      Ryd( 2S)     0.00044       0.41545
   231    H   11  S      Ryd( 4S)     0.00046       1.68118
   232    H   11  S      Ryd( 3S)     0.00002       1.31074
   233    H   11  px     Ryd( 2p)     0.00019       2.36112
   234    H   11  py     Ryd( 2p)     0.00017       2.30092
   235    H   11  pz     Ryd( 2p)     0.00012       1.74209
 
   236    H   12  S      Val( 1S)     0.38445       0.13446
   237    H   12  S      Ryd( 2S)     0.00108       0.36203
   238    H   12  S      Ryd( 4S)     0.00061       1.74156
   239    H   12  S      Ryd( 3S)     0.00001       1.17035
   240    H   12  px     Ryd( 2p)     0.00007       2.13322
   241    H   12  py     Ryd( 2p)     0.00008       1.91914
   242    H   12  pz     Ryd( 2p)     0.00013       2.63273
 
   243    H   13  S      Val( 1S)     0.37797       0.13017
   244    H   13  S      Ryd( 2S)     0.00236       0.33269
   245    H   13  S      Ryd( 4S)     0.00063       1.63199
   246    H   13  S      Ryd( 3S)     0.00001       1.20874
   247    H   13  px     Ryd( 2p)     0.00012       2.43473
   248    H   13  py     Ryd( 2p)     0.00009       1.99177
   249    H   13  pz     Ryd( 2p)     0.00009       2.22927
 
   250    H   14  S      Val( 1S)     0.38247       0.12484
   251    H   14  S      Ryd( 2S)     0.00441       0.31964
   252    H   14  S      Ryd( 4S)     0.00026       1.44066
   253    H   14  S      Ryd( 3S)     0.00002       1.30085
   254    H   14  px     Ryd( 2p)     0.00011       2.37745
   255    H   14  py     Ryd( 2p)     0.00010       2.22316
   256    H   14  pz     Ryd( 2p)     0.00005       1.88840
 
   257    H   15  S      Val( 1S)     0.38647       0.14701
   258    H   15  S      Ryd( 2S)     0.00131       0.39489
   259    H   15  S      Ryd( 4S)     0.00051       1.96511
   260    H   15  S      Ryd( 3S)     0.00001       0.92069
   261    H   15  px     Ryd( 2p)     0.00010       2.05385
   262    H   15  py     Ryd( 2p)     0.00005       1.90294
   263    H   15  pz     Ryd( 2p)     0.00010       2.59539
 
   264    H   16  S      Val( 1S)     0.27989       0.11525
   265    H   16  S      Ryd( 2S)     0.01465       0.24089
   266    H   16  S      Ryd( 4S)     0.00028       1.96416
   267    H   16  S      Ryd( 3S)     0.00003       1.07933
   268    H   16  px     Ryd( 2p)     0.00020       2.21105
   269    H   16  py     Ryd( 2p)     0.00025       1.88147
   270    H   16  pz     Ryd( 2p)     0.00022       2.48356
 
   271    H   17  S      Val( 1S)     0.39606       0.12701
   272    H   17  S      Ryd( 2S)     0.00021       0.63816
   273    H   17  S      Ryd( 3S)     0.00023       1.10160
   274    H   17  S      Ryd( 4S)     0.00005       1.33835
   275    H   17  px     Ryd( 2p)     0.00006       1.94471
   276    H   17  py     Ryd( 2p)     0.00009       1.79181
   277    H   17  pz     Ryd( 2p)     0.00027       2.86092

 WARNING:  Population inversion found on atom  C    1
           Population inversion found on atom  C    2
           Population inversion found on atom  C    3
           Population inversion found on atom  C    4
           Population inversion found on atom  S    5
           Population inversion found on atom  C    6
           Population inversion found on atom  N    7
           Population inversion found on atom  N    8
           Population inversion found on atom  N    9
           Population inversion found on atom  C   10
           Population inversion found on atom  H   11
           Population inversion found on atom  H   12
           Population inversion found on atom  H   13
           Population inversion found on atom  H   14
           Population inversion found on atom  H   15
           Population inversion found on atom  H   16
           Population inversion found on atom  H   17


 Summary of Natural Population Analysis:                  
                                                          
                                       Natural Population 
                Natural  -----------------------------------------------
    Atom  No    Charge         Core      Valence    Rydberg      Total
 -----------------------------------------------------------------------
      C    1   -0.11929      0.99926     2.11651    0.00352     3.11929
      C    2    0.00127      0.99936     1.98965    0.00972     2.99873
      C    3   -0.23678      0.99955     2.22519    0.01204     3.23678
      C    4   -0.23782      0.99958     2.22572    0.01252     3.23782
      S    5    0.11477      4.99954     2.86719    0.01850     7.88523
      C    6   -0.03078      0.99950     2.01277    0.01851     3.03078
      N    7   -0.13241      0.99968     2.61885    0.01388     3.63241
      N    8   -0.06323      0.99975     2.54546    0.01802     3.56323
      N    9   -0.13619      0.99974     2.62300    0.01345     3.63619
      C   10   -0.03459      0.99953     2.02083    0.01423     3.03459
      H   11    0.11122      0.00000     0.38738    0.00140     0.38878
      H   12    0.11356      0.00000     0.38445    0.00199     0.38644
      H   13    0.11873      0.00000     0.37797    0.00330     0.38127
      H   14    0.11259      0.00000     0.38247    0.00494     0.38741
      H   15    0.11144      0.00000     0.38647    0.00209     0.38856
      H   16    0.20448      0.00000     0.27989    0.01563     0.29552
      H   17    0.10303      0.00000     0.39606    0.00091     0.39697
 =======================================================================
   * Total *    0.00000     13.99548    25.83985    0.16467    40.00000

                                 Natural Population      
 --------------------------------------------------------
   Core                      13.99548 ( 99.9677% of  14)
   Valence                   25.83985 ( 99.3841% of  26)
   Natural Minimal Basis     39.83533 ( 99.5883% of  40)
   Natural Rydberg Basis      0.16467 (  0.4117% of  40)
 --------------------------------------------------------

    Atom  No          Natural Electron Configuration
 ----------------------------------------------------------------------------
      C    1      [core]2S( 0.50)2p( 1.62)
      C    2      [core]2S( 0.45)2p( 1.54)
      C    3      [core]2S( 0.51)2p( 1.71)
      C    4      [core]2S( 0.55)2p( 1.67)
      S    5      [core]3S( 0.83)3p( 2.04)3d( 0.01)4p( 0.01)
      C    6      [core]2S( 0.47)2p( 1.54)3p( 0.01)
      N    7      [core]2S( 0.71)2p( 1.90)3p( 0.01)
      N    8      [core]2S( 0.60)2p( 1.95)3p( 0.01)4p( 0.01)
      N    9      [core]2S( 0.72)2p( 1.91)
      C   10      [core]2S( 0.47)2p( 1.55)3p( 0.01)
      H   11            1S( 0.39)
      H   12            1S( 0.38)
      H   13            1S( 0.38)
      H   14            1S( 0.38)
      H   15            1S( 0.39)
      H   16            1S( 0.28)2S( 0.01)
      H   17            1S( 0.40)


 NBO analysis skipped by request.
 1\1\GINC-NODE357\SP\UB3LYP\6-311++G(d,p)\C6H7N3S1(1-,2)\VSC10255\07-De
 c-2020\0\\# B3LYP/6-311++G(d,p) empiricaldispersion=gd3bj scf=xqc pop=
 npa geom=check\\CID_130652087_JID_0_Energie_anion\\-1,2\C,0,0.82896004
 27,-0.1013470482,0.1692579525\C,0,-0.374202474,-0.0376956733,0.1030836
 742\C,0,-1.8317301348,0.0336186527,0.0148284071\C,0,-2.5327289101,-1.3
 329029243,0.097424116\S,0,-2.384950655,-2.1751469988,1.7271530269\C,0,
 -0.7673645983,-2.8663573909,1.5860394575\N,0,-0.3728712545,-3.59197623
 08,0.5318306049\N,0,0.8887137761,-3.8874422076,0.8321736282\N,0,1.3504
 145468,-3.4437974997,1.9998756367\C,0,0.3050911715,-2.7818744681,2.499
 2150041\H,0,1.8895618703,-0.1753010416,0.2458649203\H,0,-2.2184837801,
 0.6845135276,0.8089199521\H,0,-2.1153966767,0.5012436608,-0.9394643842
 \H,0,-3.6084514856,-1.200594481,-0.0515486056\H,0,-2.160717728,-2.0174
 841974,-0.667240481\H,0,1.4656949524,-4.4308410377,0.2068871239\H,0,0.
 3587213373,-2.2738246417,3.4499599662\\Version=ES64L-G16RevA.03\State=
 2-A\HF=-795.3368505\S2=0.750272\S2-1=0.\S2A=0.75\RMSD=1.223e-09\Dipole
 =0.4085805,-0.2967167,1.9433532\Quadrupole=-9.8858985,0.0160959,9.8698
 026,12.7311743,-3.0812905,4.1932111\PG=C01 [X(C6H7N3S1)]\\@


 TERRY FORSTER, PORTLY ATLANTA BRAVES RELIEVER,
 ANNOUNCING THAT HE WAS GOING TO A FAT FARM:
 "A WAIST IS A TERRIBLE THING TO MIND."
 Job cpu time:       0 days  0 hours 53 minutes 26.5 seconds.
 Elapsed time:       0 days  0 hours 13 minutes 24.9 seconds.
 File lengths (MBytes):  RWF=    132 Int=      0 D2E=      0 Chk=     12 Scr=      8
 Normal termination of Gaussian 16 at Mon Dec  7 21:49:20 2020.
