 Entering Gaussian System, Link 0=g16
 Initial command:
 /apps/brussel/CO7/skylake/software/Gaussian/G16.A.03-intel-2017b/g16/l1.exe "/scratch/brussel/102/vsc10255/Gau-268462.inp" -scrdir="/scratch/brussel/102/vsc10255/"
 Entering Link 1 = /apps/brussel/CO7/skylake/software/Gaussian/G16.A.03-intel-2017b/g16/l1.exe.bin PID=    268463.
  
 Copyright (c) 1988,1990,1992,1993,1995,1998,2003,2009,2016,
            Gaussian, Inc.  All Rights Reserved.
  
 This is part of the Gaussian(R) 16 program.  It is based on
 the Gaussian(R) 09 system (copyright 2009, Gaussian, Inc.),
 the Gaussian(R) 03 system (copyright 2003, Gaussian, Inc.),
 the Gaussian(R) 98 system (copyright 1998, Gaussian, Inc.),
 the Gaussian(R) 94 system (copyright 1995, Gaussian, Inc.),
 the Gaussian 92(TM) system (copyright 1992, Gaussian, Inc.),
 the Gaussian 90(TM) system (copyright 1990, Gaussian, Inc.),
 the Gaussian 88(TM) system (copyright 1988, Gaussian, Inc.),
 the Gaussian 86(TM) system (copyright 1986, Carnegie Mellon
 University), and the Gaussian 82(TM) system (copyright 1983,
 Carnegie Mellon University). Gaussian is a federally registered
 trademark of Gaussian, Inc.
  
 This software contains proprietary and confidential information,
 including trade secrets, belonging to Gaussian, Inc.
  
 This software is provided under written license and may be
 used, copied, transmitted, or stored only in accord with that
 written license.
  
 The following legend is applicable only to US Government
 contracts under FAR:
  
                    RESTRICTED RIGHTS LEGEND
  
 Use, reproduction and disclosure by the US Government is
 subject to restrictions as set forth in subparagraphs (a)
 and (c) of the Commercial Computer Software - Restricted
 Rights clause in FAR 52.227-19.
  
 Gaussian, Inc.
 340 Quinnipiac St., Bldg. 40, Wallingford CT 06492
  
  
 ---------------------------------------------------------------
 Warning -- This program may not be used in any manner that
 competes with the business of Gaussian, Inc. or will provide
 assistance to any competitor of Gaussian, Inc.  The licensee
 of this program is prohibited from giving any competitor of
 Gaussian, Inc. access to this program.  By using this program,
 the user acknowledges that Gaussian, Inc. is engaged in the
 business of creating and licensing software in the field of
 computational chemistry and represents and warrants to the
 licensee that it is not a competitor of Gaussian, Inc. and that
 it will not use this program in any manner prohibited above.
 ---------------------------------------------------------------
  

 Cite this work as:
 Gaussian 16, Revision A.03,
 M. J. Frisch, G. W. Trucks, H. B. Schlegel, G. E. Scuseria, 
 M. A. Robb, J. R. Cheeseman, G. Scalmani, V. Barone, 
 G. A. Petersson, H. Nakatsuji, X. Li, M. Caricato, A. V. Marenich, 
 J. Bloino, B. G. Janesko, R. Gomperts, B. Mennucci, H. P. Hratchian, 
 J. V. Ortiz, A. F. Izmaylov, J. L. Sonnenberg, D. Williams-Young, 
 F. Ding, F. Lipparini, F. Egidi, J. Goings, B. Peng, A. Petrone, 
 T. Henderson, D. Ranasinghe, V. G. Zakrzewski, J. Gao, N. Rega, 
 G. Zheng, W. Liang, M. Hada, M. Ehara, K. Toyota, R. Fukuda, 
 J. Hasegawa, M. Ishida, T. Nakajima, Y. Honda, O. Kitao, H. Nakai, 
 T. Vreven, K. Throssell, J. A. Montgomery, Jr., J. E. Peralta, 
 F. Ogliaro, M. J. Bearpark, J. J. Heyd, E. N. Brothers, K. N. Kudin, 
 V. N. Staroverov, T. A. Keith, R. Kobayashi, J. Normand, 
 K. Raghavachari, A. P. Rendell, J. C. Burant, S. S. Iyengar, 
 J. Tomasi, M. Cossi, J. M. Millam, M. Klene, C. Adamo, R. Cammi, 
 J. W. Ochterski, R. L. Martin, K. Morokuma, O. Farkas, 
 J. B. Foresman, and D. J. Fox, Gaussian, Inc., Wallingford CT, 2016.
 
 ******************************************
 Gaussian 16:  ES64L-G16RevA.03 25-Dec-2016
                17-Nov-2020 
 ******************************************
 %chk=CID_130652087_JID_0_input.chk
 %mem=8GB
 %nprocshared=4
 Will use up to    4 processors via shared memory.
 -----------------------------------------------------------
 # opt freq scf=xqc PBEPBE/cc-pVDZ EmpiricalDispersion=GD3BJ
 -----------------------------------------------------------
 1/18=20,19=15,26=3,38=1/1,3;
 2/9=110,12=2,17=6,18=5,40=1/2;
 3/5=16,11=2,25=1,30=1,71=1,74=1009,124=41/1,2,3;
 4//1;
 5/5=2,8=3,13=1,38=5/2,8;
 6/7=2,8=2,9=2,10=2,28=1/1;
 7//1,2,3,16;
 1/18=20,19=15,26=3/3(2);
 2/9=110/2;
 99//99;
 2/9=110/2;
 3/5=16,11=2,25=1,30=1,71=1,74=1009,124=41/1,2,3;
 4/5=5,16=3,69=1/1;
 5/5=2,8=3,13=1,38=5/2,8;
 7//1,2,3,16;
 1/18=20,19=15,26=3/3(-5);
 2/9=110/2;
 6/7=2,8=2,9=2,10=2,19=2,28=1/1;
 99/9=1/99;
 ----------------------------
 CID_130652087_JID_0_neutraal
 ----------------------------
 Symbolic Z-matrix:
 Charge =  0 Multiplicity = 1
 C                     0.9472   -0.07986  -0.02887 
 C                    -0.35666  -0.07986  -0.02887 
 C                    -1.87666  -0.07986  -0.02887 
 C                    -2.38333  -0.41672   1.36404 
 S                    -1.78      0.81916   2.54077 
 C                     0.03      0.81916   2.54077 
 N                     0.8262   -0.26389   2.54472 
 N                     2.05584   0.23904   2.53213 
 N                     2.13178   1.57003   2.54238 
 C                     0.85484   1.94116   2.53668 
 H                     2.0172   -0.07986  -0.02887 
 H                    -2.23333   0.88787  -0.31378 
 H                    -2.23332  -0.81047  -0.72451 
 H                    -3.45333  -0.41673   1.36404 
 H                    -2.02666  -1.38446   1.64894 
 H                     2.88602  -0.35336   2.51571 
 H                     0.51115   2.95444   2.52993 
 

 GradGradGradGradGradGradGradGradGradGradGradGradGradGradGradGradGradGrad
 Berny optimization.
 Initialization pass.
                           ----------------------------
                           !    Initial Parameters    !
                           ! (Angstroms and Degrees)  !
 --------------------------                            --------------------------
 ! Name  Definition              Value          Derivative Info.                !
 --------------------------------------------------------------------------------
 ! R1    R(1,2)                  1.3039         estimate D2E/DX2                !
 ! R2    R(1,11)                 1.07           estimate D2E/DX2                !
 ! R3    R(2,3)                  1.52           estimate D2E/DX2                !
 ! R4    R(3,4)                  1.52           estimate D2E/DX2                !
 ! R5    R(3,12)                 1.07           estimate D2E/DX2                !
 ! R6    R(3,13)                 1.07           estimate D2E/DX2                !
 ! R7    R(4,5)                  1.81           estimate D2E/DX2                !
 ! R8    R(4,14)                 1.07           estimate D2E/DX2                !
 ! R9    R(4,15)                 1.07           estimate D2E/DX2                !
 ! R10   R(5,6)                  1.81           estimate D2E/DX2                !
 ! R11   R(6,7)                  1.3442         estimate D2E/DX2                !
 ! R12   R(6,10)                 1.3926         estimate D2E/DX2                !
 ! R13   R(7,8)                  1.3286         estimate D2E/DX2                !
 ! R14   R(8,9)                  1.3332         estimate D2E/DX2                !
 ! R15   R(8,16)                 1.02           estimate D2E/DX2                !
 ! R16   R(9,10)                 1.3298         estimate D2E/DX2                !
 ! R17   R(10,17)                1.07           estimate D2E/DX2                !
 ! A1    A(2,3,4)              109.4714         estimate D2E/DX2                !
 ! A2    A(2,3,12)             109.4715         estimate D2E/DX2                !
 ! A3    A(2,3,13)             109.4707         estimate D2E/DX2                !
 ! A4    A(4,3,12)             109.4712         estimate D2E/DX2                !
 ! A5    A(4,3,13)             109.4715         estimate D2E/DX2                !
 ! A6    A(12,3,13)            109.471          estimate D2E/DX2                !
 ! A7    A(3,4,5)              109.4714         estimate D2E/DX2                !
 ! A8    A(3,4,14)             109.4715         estimate D2E/DX2                !
 ! A9    A(3,4,15)             109.4707         estimate D2E/DX2                !
 ! A10   A(5,4,14)             109.4715         estimate D2E/DX2                !
 ! A11   A(5,4,15)             109.4713         estimate D2E/DX2                !
 ! A12   A(14,4,15)            109.4709         estimate D2E/DX2                !
 ! A13   A(4,5,6)              109.4711         estimate D2E/DX2                !
 ! A14   A(5,6,7)              126.3211         estimate D2E/DX2                !
 ! A15   A(5,6,10)             126.3213         estimate D2E/DX2                !
 ! A16   A(7,6,10)             107.3575         estimate D2E/DX2                !
 ! A17   A(6,7,8)              104.0741         estimate D2E/DX2                !
 ! A18   A(7,8,9)              115.5037         estimate D2E/DX2                !
 ! A19   A(7,8,16)             122.2483         estimate D2E/DX2                !
 ! A20   A(9,8,16)             122.248          estimate D2E/DX2                !
 ! A21   A(8,9,10)             102.9381         estimate D2E/DX2                !
 ! A22   A(6,10,9)             110.1145         estimate D2E/DX2                !
 ! A23   A(6,10,17)            124.9426         estimate D2E/DX2                !
 ! A24   A(9,10,17)            124.9429         estimate D2E/DX2                !
 ! A25   L(2,1,11,6,-1)        180.0            estimate D2E/DX2                !
 ! A26   L(1,2,3,6,-1)         180.0            estimate D2E/DX2                !
 ! A27   L(2,1,11,6,-2)        180.0            estimate D2E/DX2                !
 ! A28   L(1,2,3,6,-2)         180.0            estimate D2E/DX2                !
 ! D1    D(2,3,4,5)             59.9999         estimate D2E/DX2                !
 ! D2    D(2,3,4,14)          -179.9994         estimate D2E/DX2                !
 ! D3    D(2,3,4,15)           -60.0            estimate D2E/DX2                !
 ! D4    D(12,3,4,5)           -60.0006         estimate D2E/DX2                !
 ! D5    D(12,3,4,14)           60.0001         estimate D2E/DX2                !
 ! D6    D(12,3,4,15)          179.9995         estimate D2E/DX2                !
 ! D7    D(13,3,4,5)           179.9996         estimate D2E/DX2                !
 ! D8    D(13,3,4,14)          -59.9998         estimate D2E/DX2                !
 ! D9    D(13,3,4,15)           59.9997         estimate D2E/DX2                !
 ! D10   D(3,4,5,6)            -59.9997         estimate D2E/DX2                !
 ! D11   D(14,4,5,6)           179.9996         estimate D2E/DX2                !
 ! D12   D(15,4,5,6)            59.9998         estimate D2E/DX2                !
 ! D13   D(4,5,6,7)            -43.8045         estimate D2E/DX2                !
 ! D14   D(4,5,6,10)           136.1956         estimate D2E/DX2                !
 ! D15   D(5,6,7,8)            179.5218         estimate D2E/DX2                !
 ! D16   D(10,6,7,8)            -0.4783         estimate D2E/DX2                !
 ! D17   D(5,6,10,9)           179.8005         estimate D2E/DX2                !
 ! D18   D(5,6,10,17)           -0.1996         estimate D2E/DX2                !
 ! D19   D(7,6,10,9)            -0.1994         estimate D2E/DX2                !
 ! D20   D(7,6,10,17)          179.8004         estimate D2E/DX2                !
 ! D21   D(6,7,8,9)              1.0568         estimate D2E/DX2                !
 ! D22   D(6,7,8,16)          -178.9422         estimate D2E/DX2                !
 ! D23   D(7,8,9,10)            -1.165          estimate D2E/DX2                !
 ! D24   D(16,8,9,10)          178.8341         estimate D2E/DX2                !
 ! D25   D(8,9,10,6)             0.7776         estimate D2E/DX2                !
 ! D26   D(8,9,10,17)         -179.2222         estimate D2E/DX2                !
 --------------------------------------------------------------------------------
 Trust Radius=3.00D-01 FncErr=1.00D-07 GrdErr=1.00D-06 EigMax=2.50D+02 EigMin=1.00D-04
 Number of steps in this run=     81 maximum allowed number of steps=    102.
 GradGradGradGradGradGradGradGradGradGradGradGradGradGradGradGradGradGrad

                          Input orientation:                          
 ---------------------------------------------------------------------
 Center     Atomic      Atomic             Coordinates (Angstroms)
 Number     Number       Type             X           Y           Z
 ---------------------------------------------------------------------
      1          6           0        0.947200   -0.079860   -0.028870
      2          6           0       -0.356660   -0.079860   -0.028870
      3          6           0       -1.876660   -0.079860   -0.028870
      4          6           0       -2.383330   -0.416720    1.364040
      5         16           0       -1.780000    0.819160    2.540770
      6          6           0        0.030000    0.819160    2.540770
      7          7           0        0.826200   -0.263890    2.544720
      8          7           0        2.055840    0.239040    2.532130
      9          7           0        2.131780    1.570030    2.542380
     10          6           0        0.854840    1.941160    2.536680
     11          1           0        2.017200   -0.079860   -0.028870
     12          1           0       -2.233330    0.887870   -0.313780
     13          1           0       -2.233320   -0.810470   -0.724510
     14          1           0       -3.453330   -0.416730    1.364040
     15          1           0       -2.026660   -1.384460    1.648940
     16          1           0        2.886020   -0.353360    2.515710
     17          1           0        0.511150    2.954440    2.529930
 ---------------------------------------------------------------------
                    Distance matrix (angstroms):
                    1          2          3          4          5
     1  C    0.000000
     2  C    1.303860   0.000000
     3  C    2.823860   1.520000   0.000000
     4  C    3.625756   2.482149   1.519996   0.000000
     5  S    3.853428   3.072000   2.724083   1.810000   0.000000
     6  C    2.872724   2.749690   3.323648   2.955716   1.810000
     7  N    2.582997   2.838378   3.736668   3.423221   2.822285
     8  N    2.808826   3.532786   4.703719   4.636883   3.879469
     9  N    3.276689   3.940279   5.039946   5.071674   3.983194
    10  C    3.267277   3.483432   4.257659   4.173779   2.863788
    11  H    1.070000   2.373860   3.893860   4.627995   4.672260
    12  H    3.336682   2.130626   1.069995   2.130618   2.891139
    13  H    3.336677   2.130624   1.070006   2.130630   3.677397
    14  H    4.627996   3.412191   2.130626   1.070000   2.390011
    15  H    3.655253   2.702948   2.130617   1.070001   2.390009
    16  H    3.210718   4.130940   5.406738   5.394109   4.811151
    17  H    3.993066   4.062946   4.632070   4.593695   3.131917
                    6          7          8          9         10
     6  C    0.000000
     7  N    1.344227   0.000000
     8  N    2.107283   1.328575   0.000000
     9  N    2.231880   2.251179   1.333194   0.000000
    10  C    1.392574   2.205251   2.083179   1.329792   0.000000
    11  H    3.370497   2.841780   2.581068   3.057220   3.466648
    12  H    3.643603   4.342614   5.188175   5.260910   4.332590
    13  H    4.294225   4.510796   5.486717   5.949239   5.267216
    14  H    3.878879   4.442043   5.669693   6.043935   5.049263
    15  H    3.143430   3.193260   4.481360   5.178790   4.488972
    16  H    3.087439   2.061966   1.020003   2.066160   3.064466
    17  H    2.188845   3.233748   3.124015   2.131475   1.070002
                   11         12         13         14         15
    11  H    0.000000
    12  H    4.368602   0.000000
    13  H    4.368595   1.747300   0.000000
    14  H    5.655120   2.450604   2.450611   0.000000
    15  H    4.568351   3.009729   2.450599   1.747300   0.000000
    16  H    2.702691   5.979499   6.075822   6.443424   5.094005
    17  H    4.245306   4.459772   5.683137   5.333028   5.103203
                   16         17
    16  H    0.000000
    17  H    4.072070   0.000000
 Stoichiometry    C6H7N3S
 Framework group  C1[X(C6H7N3S)]
 Deg. of freedom    45
 Full point group                 C1      NOp   1
 Largest Abelian subgroup         C1      NOp   1
 Largest concise Abelian subgroup C1      NOp   1
                         Standard orientation:                         
 ---------------------------------------------------------------------
 Center     Atomic      Atomic             Coordinates (Angstroms)
 Number     Number       Type             X           Y           Z
 ---------------------------------------------------------------------
      1          6           0       -0.349053    2.125430   -0.247486
      2          6           0        0.852011    1.622032   -0.311420
      3          6           0        2.252174    1.035186   -0.385953
      4          6           0        2.337715   -0.187267    0.513313
      5         16           0        1.135136   -1.424296   -0.034099
      6          6           0       -0.532164   -0.725487    0.054654
      7          7           0       -1.035521    0.007789    1.062565
      8          7           0       -2.271553    0.293730    0.668138
      9          7           0       -2.629160   -0.212905   -0.512051
     10          6           0       -1.530319   -0.848225   -0.908614
     11          1           0       -1.334694    2.538538   -0.195019
     12          1           0        2.466689    0.751347   -1.395065
     13          1           0        2.963090    1.766477   -0.062340
     14          1           0        3.323359   -0.600371    0.460855
     15          1           0        2.123205    0.096585    1.522430
     16          1           0       -2.904395    0.862669    1.230478
     17          1           0       -1.427981   -1.376815   -1.833289
 ---------------------------------------------------------------------
 Rotational constants (GHZ):           2.0554645           1.0351314           0.8020753
 Standard basis: CC-pVDZ (5D, 7F)
 There are   189 symmetry adapted cartesian basis functions of A   symmetry.
 There are   179 symmetry adapted basis functions of A   symmetry.
   179 basis functions,   417 primitive gaussians,   189 cartesian basis functions
    40 alpha electrons       40 beta electrons
       nuclear repulsion energy       589.9529410872 Hartrees.
 NAtoms=   17 NActive=   17 NUniq=   17 SFac= 1.00D+00 NAtFMM=   60 NAOKFM=F Big=F
 Integral buffers will be    131072 words long.
 Raffenetti 2 integral format.
 Two-electron integral symmetry is turned on.
 Nuclear repulsion after empirical dispersion term =      589.9317422583 Hartrees.
 One-electron integrals computed using PRISM.
 NBasis=   179 RedAO= T EigKep=  5.27D-04  NBF=   179
 NBsUse=   179 1.00D-06 EigRej= -1.00D+00 NBFU=   179
 ExpMin= 1.22D-01 ExpMax= 1.11D+05 ExpMxC= 1.07D+03 IAcc=3 IRadAn=         5 AccDes= 0.00D+00
 Harris functional with IExCor= 1009 and IRadAn=       5 diagonalized for initial guess.
 HarFok:  IExCor= 1009 AccDes= 0.00D+00 IRadAn=         5 IDoV= 1 UseB2=F ITyADJ=14
 ICtDFT=  3500011 ScaDFX=  1.000000  1.000000  1.000000  1.000000
 FoFCou: FMM=F IPFlag=           0 FMFlag=      100000 FMFlg1=           0
         NFxFlg=           0 DoJE=T BraDBF=F KetDBF=T FulRan=T
         wScrn=  0.000000 ICntrl=       500 IOpCl=  0 I1Cent=   200000004 NGrid=           0
         NMat0=    1 NMatS0=      1 NMatT0=    0 NMatD0=    1 NMtDS0=    0 NMtDT0=    0
 Petite list used in FoFCou.
 Keep J ints in memory in canonical form, NReq=133843288.
 Requested convergence on RMS density matrix=1.00D-08 within  32 cycles.
 Requested convergence on MAX density matrix=1.00D-06.
 Requested convergence on             energy=1.00D-06.
 No special actions if energy rises.
 Integral accuracy reduced to 1.0D-05 until final iterations.
 Initial convergence to 1.0D-05 achieved.  Increase integral accuracy.
 SCF Done:  E(RPBE-PBE) =  -794.542975824     A.U. after   17 cycles
            NFock= 17  Conv=0.38D-08     -V/T= 2.0041
 QCSCF skips out because SCF is already converged.

 **********************************************************************

            Population analysis using the SCF density.

 **********************************************************************

 Orbital symmetries:
       Occupied  (A) (A) (A) (A) (A) (A) (A) (A) (A) (A) (A) (A)
                 (A) (A) (A) (A) (A) (A) (A) (A) (A) (A) (A) (A)
                 (A) (A) (A) (A) (A) (A) (A) (A) (A) (A) (A) (A)
                 (A) (A) (A) (A)
       Virtual   (A) (A) (A) (A) (A) (A) (A) (A) (A) (A) (A) (A)
                 (A) (A) (A) (A) (A) (A) (A) (A) (A) (A) (A) (A)
                 (A) (A) (A) (A) (A) (A) (A) (A) (A) (A) (A) (A)
                 (A) (A) (A) (A) (A) (A) (A) (A) (A) (A) (A) (A)
                 (A) (A) (A) (A) (A) (A) (A) (A) (A) (A) (A) (A)
                 (A) (A) (A) (A) (A) (A) (A) (A) (A) (A) (A) (A)
                 (A) (A) (A) (A) (A) (A) (A) (A) (A) (A) (A) (A)
                 (A) (A) (A) (A) (A) (A) (A) (A) (A) (A) (A) (A)
                 (A) (A) (A) (A) (A) (A) (A) (A) (A) (A) (A) (A)
                 (A) (A) (A) (A) (A) (A) (A) (A) (A) (A) (A) (A)
                 (A) (A) (A) (A) (A) (A) (A) (A) (A) (A) (A) (A)
                 (A) (A) (A) (A) (A) (A) (A)
 The electronic state is 1-A.
 Alpha  occ. eigenvalues --  -88.07052 -14.10465 -14.02696 -14.02192  -9.94541
 Alpha  occ. eigenvalues --   -9.93667  -9.93354  -9.91947  -9.91482  -9.90550
 Alpha  occ. eigenvalues --   -7.68182  -5.70625  -5.70097  -5.69311  -1.01985
 Alpha  occ. eigenvalues --   -0.81469  -0.77274  -0.74973  -0.67659  -0.63670
 Alpha  occ. eigenvalues --   -0.59014  -0.57326  -0.52949  -0.48826  -0.48173
 Alpha  occ. eigenvalues --   -0.43893  -0.43156  -0.41428  -0.40296  -0.38881
 Alpha  occ. eigenvalues --   -0.36117  -0.35387  -0.29156  -0.27869  -0.26682
 Alpha  occ. eigenvalues --   -0.25714  -0.24432  -0.21819  -0.21132  -0.18458
 Alpha virt. eigenvalues --   -0.04329  -0.01979  -0.00890   0.00842   0.01724
 Alpha virt. eigenvalues --    0.03545   0.03660   0.06375   0.07341   0.08835
 Alpha virt. eigenvalues --    0.09552   0.09842   0.12782   0.14687   0.16021
 Alpha virt. eigenvalues --    0.17415   0.20670   0.22363   0.29149   0.29834
 Alpha virt. eigenvalues --    0.33486   0.34376   0.36132   0.37212   0.39875
 Alpha virt. eigenvalues --    0.41207   0.42788   0.44569   0.44822   0.47613
 Alpha virt. eigenvalues --    0.47866   0.49532   0.50498   0.51765   0.52131
 Alpha virt. eigenvalues --    0.53519   0.56597   0.57040   0.57942   0.58629
 Alpha virt. eigenvalues --    0.59427   0.60143   0.61243   0.62573   0.63675
 Alpha virt. eigenvalues --    0.64851   0.65623   0.68441   0.69615   0.71721
 Alpha virt. eigenvalues --    0.73531   0.74489   0.77339   0.78223   0.78794
 Alpha virt. eigenvalues --    0.80375   0.80681   0.81578   0.83288   0.86157
 Alpha virt. eigenvalues --    0.87926   0.89334   0.91037   0.93398   0.95415
 Alpha virt. eigenvalues --    0.98316   1.00542   1.02546   1.05465   1.09709
 Alpha virt. eigenvalues --    1.10033   1.14043   1.16040   1.16954   1.19555
 Alpha virt. eigenvalues --    1.20645   1.23491   1.25075   1.28109   1.30436
 Alpha virt. eigenvalues --    1.31288   1.34211   1.35470   1.37661   1.38579
 Alpha virt. eigenvalues --    1.44023   1.45450   1.47847   1.52090   1.52313
 Alpha virt. eigenvalues --    1.55232   1.56820   1.58081   1.59919   1.60289
 Alpha virt. eigenvalues --    1.61491   1.63088   1.67671   1.68376   1.69846
 Alpha virt. eigenvalues --    1.70752   1.73545   1.77288   1.79046   1.79687
 Alpha virt. eigenvalues --    1.82822   1.84386   1.86058   1.88760   1.90672
 Alpha virt. eigenvalues --    1.91553   1.94081   1.96501   2.02039   2.07036
 Alpha virt. eigenvalues --    2.11040   2.11533   2.14946   2.22700   2.24731
 Alpha virt. eigenvalues --    2.25627   2.29965   2.34063   2.36403   2.39020
 Alpha virt. eigenvalues --    2.40241   2.42681   2.43714   2.47689   2.51163
 Alpha virt. eigenvalues --    2.51517   2.57675   2.58918   2.62550   2.81532
 Alpha virt. eigenvalues --    2.84923   2.96392   3.00692   3.06385
          Condensed to atoms (all electrons):
               1          2          3          4          5          6
     1  C    5.361356   0.588536  -0.091548  -0.000794  -0.001563  -0.020692
     2  C    0.588536   5.020896   0.462164  -0.064805  -0.016065  -0.005913
     3  C   -0.091548   0.462164   4.608705   0.408820  -0.076387  -0.005601
     4  C   -0.000794  -0.064805   0.408820   4.767773   0.298870  -0.019205
     5  S   -0.001563  -0.016065  -0.076387   0.298870  15.653787   0.293435
     6  C   -0.020692  -0.005913  -0.005601  -0.019205   0.293435   5.090059
     7  N   -0.024305  -0.023475   0.000034  -0.001132  -0.047584   0.475478
     8  N   -0.003571  -0.005019  -0.000023   0.000007   0.004567  -0.119211
     9  N   -0.001817  -0.000922  -0.000033  -0.000041   0.004844  -0.011571
    10  C   -0.002983  -0.002035   0.000752   0.000825  -0.059264   0.468093
    11  H    0.454957  -0.092586   0.000534   0.000013   0.000133  -0.005302
    12  H    0.000742  -0.004701   0.349414  -0.034464   0.005922  -0.001959
    13  H    0.001478  -0.002999   0.332891  -0.014061   0.008859   0.000013
    14  H   -0.000325   0.004396  -0.010518   0.369773  -0.023054   0.002393
    15  H    0.001204  -0.006914  -0.025526   0.377808  -0.039220  -0.006139
    16  H    0.000363   0.000340   0.000016  -0.000007  -0.000327   0.006183
    17  H    0.000418   0.000639   0.000090  -0.000230   0.001712  -0.054780
               7          8          9         10         11         12
     1  C   -0.024305  -0.003571  -0.001817  -0.002983   0.454957   0.000742
     2  C   -0.023475  -0.005019  -0.000922  -0.002035  -0.092586  -0.004701
     3  C    0.000034  -0.000023  -0.000033   0.000752   0.000534   0.349414
     4  C   -0.001132   0.000007  -0.000041   0.000825   0.000013  -0.034464
     5  S   -0.047584   0.004567   0.004844  -0.059264   0.000133   0.005922
     6  C    0.475478  -0.119211  -0.011571   0.468093  -0.005302  -0.001959
     7  N    6.574561   0.345932  -0.131774  -0.019528  -0.004440   0.000056
     8  N    0.345932   6.108973   0.329652  -0.134245   0.011705  -0.000008
     9  N   -0.131774   0.329652   6.477486   0.541043   0.002557   0.000010
    10  C   -0.019528  -0.134245   0.541043   4.668641  -0.000038   0.000107
    11  H   -0.004440   0.011705   0.002557  -0.000038   0.663031  -0.000024
    12  H    0.000056  -0.000008   0.000010   0.000107  -0.000024   0.656756
    13  H   -0.000195   0.000003   0.000000  -0.000054   0.000026  -0.035308
    14  H   -0.000028   0.000002   0.000002  -0.000110  -0.000002  -0.005890
    15  H    0.005094  -0.000138   0.000029   0.000478  -0.000003   0.010922
    16  H   -0.028886   0.378471  -0.029790   0.005750   0.001025   0.000002
    17  H    0.009453   0.005179  -0.031849   0.395237   0.000036   0.000052
              13         14         15         16         17
     1  C    0.001478  -0.000325   0.001204   0.000363   0.000418
     2  C   -0.002999   0.004396  -0.006914   0.000340   0.000639
     3  C    0.332891  -0.010518  -0.025526   0.000016   0.000090
     4  C   -0.014061   0.369773   0.377808  -0.000007  -0.000230
     5  S    0.008859  -0.023054  -0.039220  -0.000327   0.001712
     6  C    0.000013   0.002393  -0.006139   0.006183  -0.054780
     7  N   -0.000195  -0.000028   0.005094  -0.028886   0.009453
     8  N    0.000003   0.000002  -0.000138   0.378471   0.005179
     9  N    0.000000   0.000002   0.000029  -0.029790  -0.031849
    10  C   -0.000054  -0.000110   0.000478   0.005750   0.395237
    11  H    0.000026  -0.000002  -0.000003   0.001025   0.000036
    12  H   -0.035308  -0.005890   0.010922   0.000002   0.000052
    13  H    0.671356  -0.003533  -0.006366   0.000000   0.000004
    14  H   -0.003533   0.641020  -0.027885  -0.000000  -0.000004
    15  H   -0.006366  -0.027885   0.641826   0.000018   0.000010
    16  H    0.000000  -0.000000   0.000018   0.545557  -0.000427
    17  H    0.000004  -0.000004   0.000010  -0.000427   0.687469
 Mulliken charges:
               1
     1  C   -0.261456
     2  C    0.148463
     3  C    0.046215
     4  C   -0.089149
     5  S   -0.008667
     6  C   -0.085280
     7  N   -0.129261
     8  N    0.077724
     9  N   -0.147827
    10  C    0.137331
    11  H   -0.031622
    12  H    0.058371
    13  H    0.047888
    14  H    0.053764
    15  H    0.074804
    16  H    0.121712
    17  H   -0.013008
 Sum of Mulliken charges =  -0.00000
 Mulliken charges with hydrogens summed into heavy atoms:
               1
     1  C   -0.293079
     2  C    0.148463
     3  C    0.152474
     4  C    0.039419
     5  S   -0.008667
     6  C   -0.085280
     7  N   -0.129261
     8  N    0.199436
     9  N   -0.147827
    10  C    0.124322
 Electronic spatial extent (au):  <R**2>=           1472.8167
 Charge=             -0.0000 electrons
 Dipole moment (field-independent basis, Debye):
    X=              0.8628    Y=              1.1624    Z=              0.6729  Tot=              1.5963
 Quadrupole moment (field-independent basis, Debye-Ang):
   XX=            -53.7660   YY=            -67.5016   ZZ=            -65.4457
   XY=             -3.2400   XZ=             -4.0016   YZ=              3.1781
 Traceless Quadrupole moment (field-independent basis, Debye-Ang):
   XX=              8.4718   YY=             -5.2639   ZZ=             -3.2079
   XY=             -3.2400   XZ=             -4.0016   YZ=              3.1781
 Octapole moment (field-independent basis, Debye-Ang**2):
  XXX=             17.7592  YYY=             -3.1171  ZZZ=              0.8039  XYY=            -15.1173
  XXY=             17.5902  XXZ=             22.1196  XZZ=             -5.4936  YZZ=             -2.9852
  YYZ=              1.0391  XYZ=             -6.5238
 Hexadecapole moment (field-independent basis, Debye-Ang**3):
 XXXX=          -1111.2929 YYYY=           -616.3687 ZZZZ=           -207.2152 XXXY=            -44.2980
 XXXZ=            -68.9409 YYYX=            -23.2646 YYYZ=             13.2982 ZZZX=             -6.9377
 ZZZY=             12.7707 XXYY=           -269.0575 XXZZ=           -214.7337 YYZZ=           -136.4194
 XXYZ=             14.6250 YYXZ=             -1.8739 ZZXY=             -1.4067
 N-N= 5.899317422583D+02 E-N=-3.049336712268D+03  KE= 7.912818987471D+02
 Calling FoFJK, ICntrl=      2527 FMM=F ISym2X=0 I1Cent= 0 IOpClX= 0 NMat=1 NMatS=1 NMatT=0.
 ***** Axes restored to original set *****
 -------------------------------------------------------------------
 Center     Atomic                   Forces (Hartrees/Bohr)
 Number     Number              X              Y              Z
 -------------------------------------------------------------------
      1        6          -0.139441860   -0.002392669   -0.020489487
      2        6           0.100863487    0.000155494   -0.020476214
      3        6           0.049531282   -0.007748507    0.019057985
      4        6           0.031205683    0.010959532   -0.013813908
      5       16           0.004526314    0.016541220    0.023527435
      6        6          -0.013703185   -0.021779171    0.001207716
      7        7          -0.005765039   -0.024830052    0.019383478
      8        7          -0.014557675    0.004865444    0.004234133
      9        7           0.020306461    0.010298010   -0.001509470
     10        6          -0.006361424    0.008011395    0.002177738
     11        1           0.006445695    0.000523642   -0.000561229
     12        1          -0.007522045    0.024296753   -0.009223140
     13        1          -0.008087666   -0.018207863   -0.020761679
     14        1          -0.025688097    0.004844086    0.007757245
     15        1           0.006587156   -0.024272349    0.008788322
     16        1          -0.000168908   -0.000504843    0.001153224
     17        1           0.001829822    0.019239879   -0.000452150
 -------------------------------------------------------------------
 Cartesian Forces:  Max     0.139441860 RMS     0.028517165

 GradGradGradGradGradGradGradGradGradGradGradGradGradGradGradGradGradGrad
 Berny optimization.
 FormGI is forming the generalized inverse of G from B-inverse, IUseBI=4.
 Internal  Forces:  Max     0.132994951 RMS     0.035004071
 Search for a local minimum.
 Step number   1 out of a maximum of   81
 All quantities printed in internal units (Hartrees-Bohrs-Radians)
 Mixed Optimization -- RFO/linear search
 Second derivative matrix not updated -- first step.
 ITU=  0
     Eigenvalues ---    0.00238   0.00238   0.00499   0.00499   0.00501
     Eigenvalues ---    0.00501   0.00501   0.01699   0.02209   0.02268
     Eigenvalues ---    0.02323   0.02380   0.05134   0.05892   0.05929
     Eigenvalues ---    0.06147   0.10921   0.13582   0.16000   0.16000
     Eigenvalues ---    0.16000   0.16000   0.22066   0.22463   0.23138
     Eigenvalues ---    0.23980   0.25000   0.25000   0.25344   0.25344
     Eigenvalues ---    0.30367   0.30367   0.37229   0.37230   0.37230
     Eigenvalues ---    0.37230   0.37230   0.37231   0.43215   0.44338
     Eigenvalues ---    0.52040   0.54765   0.57807   0.59576   0.66132
 RFO step:  Lambda=-2.07134193D-01 EMin= 2.38020663D-03
 Linear search not attempted -- first point.
 Maximum step size (   0.300) exceeded in Quadratic search.
    -- Step size scaled by   0.487
 Iteration  1 RMS(Cart)=  0.35334726 RMS(Int)=  0.02144448
 Iteration  2 RMS(Cart)=  0.14339380 RMS(Int)=  0.00270410
 Iteration  3 RMS(Cart)=  0.00574278 RMS(Int)=  0.00102612
 Iteration  4 RMS(Cart)=  0.00001710 RMS(Int)=  0.00102611
 Iteration  5 RMS(Cart)=  0.00000001 RMS(Int)=  0.00102611
 Variable       Old X    -DE/DX   Delta X   Delta X   Delta X     New X
                                 (Linear)    (Quad)   (Total)
    R1        2.46394  -0.13299   0.00000  -0.07458  -0.07458   2.38935
    R2        2.02201   0.00645   0.00000   0.00542   0.00542   2.02743
    R3        2.87238  -0.03213   0.00000  -0.03064  -0.03064   2.84175
    R4        2.87238   0.04792   0.00000   0.04569   0.04569   2.91807
    R5        2.02200   0.02694   0.00000   0.02264   0.02264   2.04464
    R6        2.02202   0.02863   0.00000   0.02406   0.02406   2.04608
    R7        3.42040   0.03578   0.00000   0.03783   0.03783   3.45824
    R8        2.02201   0.02569   0.00000   0.02159   0.02159   2.04360
    R9        2.02201   0.02649   0.00000   0.02226   0.02226   2.04427
   R10        3.42040  -0.01842   0.00000  -0.01948  -0.01948   3.40092
   R11        2.54022   0.00289   0.00000   0.00175   0.00176   2.54198
   R12        2.63158   0.02312   0.00000   0.01715   0.01716   2.64875
   R13        2.51064   0.00389   0.00000   0.00189   0.00188   2.51253
   R14        2.51937   0.01185   0.00000   0.00703   0.00701   2.52638
   R15        1.92753   0.00014   0.00000   0.00010   0.00010   1.92763
   R16        2.51294   0.00764   0.00000   0.00497   0.00497   2.51791
   R17        2.02201   0.01763   0.00000   0.01482   0.01482   2.03683
    A1        1.91064   0.12209   0.00000   0.13954   0.13883   2.04946
    A2        1.91064  -0.03678   0.00000  -0.03377  -0.03530   1.87534
    A3        1.91062  -0.04997   0.00000  -0.05775  -0.05754   1.85309
    A4        1.91063  -0.01408   0.00000  -0.01439  -0.01559   1.89505
    A5        1.91064  -0.01981   0.00000  -0.02524  -0.02536   1.88528
    A6        1.91063  -0.00146   0.00000  -0.00840  -0.00893   1.90169
    A7        1.91064   0.11520   0.00000   0.13362   0.13253   2.04317
    A8        1.91064  -0.04927   0.00000  -0.06685  -0.06428   1.84636
    A9        1.91062   0.00342   0.00000   0.02042   0.01765   1.92828
   A10        1.91064  -0.04929   0.00000  -0.06740  -0.06481   1.84582
   A11        1.91063  -0.02921   0.00000  -0.02119  -0.02634   1.88429
   A12        1.91063   0.00916   0.00000   0.00140   0.00065   1.91128
   A13        1.91063   0.08244   0.00000   0.08783   0.08783   1.99846
   A14        2.20472  -0.00618   0.00000  -0.00680  -0.00697   2.19775
   A15        2.20472  -0.00458   0.00000  -0.00510  -0.00526   2.19946
   A16        1.87374   0.01076   0.00000   0.01190   0.01180   1.88554
   A17        1.81644  -0.01331   0.00000  -0.01556  -0.01553   1.80091
   A18        2.01592   0.01618   0.00000   0.01735   0.01735   2.03326
   A19        2.13363  -0.00858   0.00000  -0.00933  -0.00933   2.12431
   A20        2.13363  -0.00760   0.00000  -0.00802  -0.00802   2.12561
   A21        1.79661  -0.00626   0.00000  -0.00643  -0.00643   1.79018
   A22        1.92186  -0.00736   0.00000  -0.00723  -0.00720   1.91466
   A23        2.18066   0.01168   0.00000   0.01423   0.01421   2.19487
   A24        2.18067  -0.00432   0.00000  -0.00699  -0.00701   2.17366
   A25        3.14159   0.00072   0.00000   0.00165   0.00165   3.14324
   A26        3.14159   0.05119   0.00000   0.11753   0.11753   3.25912
   A27        3.14159   0.00131   0.00000   0.00300   0.00300   3.14459
   A28        3.14159  -0.01403   0.00000  -0.03220  -0.03220   3.10939
    D1        1.04720   0.03067   0.00000   0.06052   0.06277   1.10996
    D2       -3.14158   0.01067   0.00000   0.01886   0.01873  -3.12285
    D3       -1.04720  -0.00620   0.00000  -0.00786  -0.00867  -1.05587
    D4       -1.04721   0.00956   0.00000   0.02524   0.02682  -1.02039
    D5        1.04720  -0.01044   0.00000  -0.01642  -0.01722   1.02998
    D6        3.14158  -0.02730   0.00000  -0.04314  -0.04462   3.09696
    D7        3.14159   0.03210   0.00000   0.05979   0.06139  -3.08021
    D8       -1.04719   0.01210   0.00000   0.01813   0.01736  -1.02983
    D9        1.04719  -0.00476   0.00000  -0.00859  -0.01004   1.03715
   D10       -1.04719  -0.06587   0.00000  -0.13864  -0.13935  -1.18654
   D11        3.14159  -0.04588   0.00000  -0.09732  -0.09561   3.04598
   D12        1.04719  -0.00902   0.00000  -0.04478  -0.04578   1.00142
   D13       -0.76453  -0.03100   0.00000  -0.07082  -0.07072  -0.83525
   D14        2.37706  -0.01454   0.00000  -0.03503  -0.03513   2.34193
   D15        3.13325   0.01057   0.00000   0.02278   0.02282  -3.12712
   D16       -0.00835  -0.00333   0.00000  -0.00743  -0.00745  -0.01580
   D17        3.13811  -0.00949   0.00000  -0.02057  -0.02061   3.11750
   D18       -0.00348  -0.00914   0.00000  -0.01982  -0.01985  -0.02334
   D19       -0.00348   0.00441   0.00000   0.00964   0.00970   0.00622
   D20        3.13811   0.00476   0.00000   0.01039   0.01046  -3.13462
   D21        0.01845   0.00150   0.00000   0.00340   0.00340   0.02184
   D22       -3.12313   0.00034   0.00000   0.00085   0.00086  -3.12228
   D23       -0.02033   0.00106   0.00000   0.00230   0.00232  -0.01801
   D24        3.12124   0.00222   0.00000   0.00486   0.00487   3.12611
   D25        0.01357  -0.00346   0.00000  -0.00732  -0.00729   0.00629
   D26       -3.12802  -0.00381   0.00000  -0.00807  -0.00803  -3.13605
         Item               Value     Threshold  Converged?
 Maximum Force            0.132995     0.000450     NO 
 RMS     Force            0.035004     0.000300     NO 
 Maximum Displacement     2.484901     0.001800     NO 
 RMS     Displacement     0.486473     0.001200     NO 
 Predicted change in Energy=-9.070001D-02
 GradGradGradGradGradGradGradGradGradGradGradGradGradGradGradGradGradGrad

                          Input orientation:                          
 ---------------------------------------------------------------------
 Center     Atomic      Atomic             Coordinates (Angstroms)
 Number     Number       Type             X           Y           Z
 ---------------------------------------------------------------------
      1          6           0        0.732845   -0.221623   -0.957120
      2          6           0       -0.447160   -0.187909   -0.504201
      3          6           0       -1.905783   -0.155792   -0.139828
      4          6           0       -2.273837   -0.384491    1.342303
      5         16           0       -1.677288    0.855048    2.549220
      6          6           0        0.107497    0.873756    2.779613
      7          7           0        0.887803   -0.202191    2.986771
      8          7           0        2.102478    0.323736    3.112176
      9          7           0        2.187074    1.655517    3.031431
     10          6           0        0.922183    2.013802    2.814571
     11          1           0        1.733247   -0.248113   -1.343823
     12          1           0       -2.295981    0.805308   -0.447571
     13          1           0       -2.380362   -0.932313   -0.726438
     14          1           0       -3.353502   -0.342262    1.387272
     15          1           0       -1.936441   -1.358622    1.670154
     16          1           0        2.925928   -0.258767    3.264280
     17          1           0        0.588239    3.030705    2.687529
 ---------------------------------------------------------------------
                    Distance matrix (angstroms):
                    1          2          3          4          5
     1  C    0.000000
     2  C    1.264392   0.000000
     3  C    2.763089   1.503788   0.000000
     4  C    3.788669   2.604797   1.544176   0.000000
     5  S    4.388893   3.453165   2.881837   1.830021   0.000000
     6  C    3.943868   3.495456   3.692750   3.052834   1.799690
     7  N    3.946982   3.737542   4.193078   3.568401   2.808718
     8  N    4.328104   4.454281   5.183786   4.773486   3.858217
     9  N    4.641873   4.778923   5.485363   5.187921   3.975748
    10  C    4.388466   4.211518   4.629580   4.258395   2.858386
    11  H    1.072867   2.337256   3.834145   4.826033   5.291927
    12  H    3.238521   2.099482   1.081977   2.149362   3.060394
    13  H    3.201618   2.083458   1.082738   2.142696   3.797224
    14  H    4.712639   3.471069   2.112510   1.081426   2.365030
    15  H    3.914132   2.883807   2.173425   1.081783   2.395882
    16  H    4.757228   5.058082   5.911344   5.545031   4.789728
    17  H    4.886923   4.649588   4.936381   4.654533   3.144078
                    6          7          8          9         10
     6  C    0.000000
     7  N    1.345160   0.000000
     8  N    2.095965   1.329571   0.000000
     9  N    2.235890   2.267417   1.336905   0.000000
    10  C    1.401656   2.222939   2.082783   1.332421   0.000000
    11  H    4.572131   4.412588   4.507690   4.792976   4.802742
    12  H    4.024438   4.790223   5.678921   5.737952   4.739051
    13  H    4.663017   5.000191   6.033944   6.455999   5.667905
    14  H    3.923751   4.535051   5.760778   6.114930   5.086227
    15  H    3.223676   3.323728   4.606801   5.285970   4.566690
    16  H    3.075885   2.057709   1.020057   2.065092   3.062973
    17  H    2.211792   3.260507   3.130643   2.136747   1.077846
                   11         12         13         14         15
    11  H    0.000000
    12  H    4.260005   0.000000
    13  H    4.215575   1.761879   0.000000
    14  H    5.774319   2.408717   2.400611   0.000000
    15  H    4.876874   3.049036   2.474361   1.766656   0.000000
    16  H    4.759960   6.494492   6.673546   6.554493   5.233885
    17  H    5.321043   4.806242   6.014423   5.348355   5.164809
                   16         17
    16  H    0.000000
    17  H    4.076526   0.000000
 Stoichiometry    C6H7N3S
 Framework group  C1[X(C6H7N3S)]
 Deg. of freedom    45
 Full point group                 C1      NOp   1
 Largest Abelian subgroup         C1      NOp   1
 Largest concise Abelian subgroup C1      NOp   1
                         Standard orientation:                         
 ---------------------------------------------------------------------
 Center     Atomic      Atomic             Coordinates (Angstroms)
 Number     Number       Type             X           Y           Z
 ---------------------------------------------------------------------
      1          6           0        1.244168    2.689185   -0.225272
      2          6           0        1.820917    1.565349   -0.170156
      3          6           0        2.657971    0.316106   -0.159595
      4          6           0        2.068837   -0.928904    0.538508
      5         16           0        0.544953   -1.643415   -0.179983
      6          6           0       -0.915397   -0.604303   -0.017171
      7          7           0       -1.327079    0.007689    1.107747
      8          7           0       -2.440110    0.626840    0.726205
      9          7           0       -2.811974    0.455002   -0.546392
     10          6           0       -1.844099   -0.323404   -1.028728
     11          1           0        0.756329    3.643437   -0.274889
     12          1           0        2.876443    0.063248   -1.188676
     13          1           0        3.581403    0.576036    0.342434
     14          1           0        2.823161   -1.699022    0.452507
     15          1           0        1.880199   -0.723102    1.583647
     16          1           0       -2.982618    1.200866    1.371726
     17          1           0       -1.794409   -0.677708   -2.045464
 ---------------------------------------------------------------------
 Rotational constants (GHZ):           1.6580175           0.8763629           0.6596705
 Standard basis: CC-pVDZ (5D, 7F)
 There are   189 symmetry adapted cartesian basis functions of A   symmetry.
 There are   179 symmetry adapted basis functions of A   symmetry.
   179 basis functions,   417 primitive gaussians,   189 cartesian basis functions
    40 alpha electrons       40 beta electrons
       nuclear repulsion energy       559.9593840644 Hartrees.
 NAtoms=   17 NActive=   17 NUniq=   17 SFac= 1.00D+00 NAtFMM=   60 NAOKFM=F Big=F
 Integral buffers will be    131072 words long.
 Raffenetti 2 integral format.
 Two-electron integral symmetry is turned on.
 Nuclear repulsion after empirical dispersion term =      559.9412423266 Hartrees.
 One-electron integrals computed using PRISM.
 NBasis=   179 RedAO= T EigKep=  4.87D-04  NBF=   179
 NBsUse=   179 1.00D-06 EigRej= -1.00D+00 NBFU=   179
 Initial guess from the checkpoint file:  "CID_130652087_JID_0_input.chk"
 B after Tr=     0.000000    0.000000   -0.000000
         Rot=    0.985093   -0.052233    0.020673    0.162592 Ang= -19.81 deg.
 ExpMin= 1.22D-01 ExpMax= 1.11D+05 ExpMxC= 1.07D+03 IAcc=2 IRadAn=         4 AccDes= 0.00D+00
 Harris functional with IExCor= 1009 and IRadAn=       4 diagonalized for initial guess.
 HarFok:  IExCor= 1009 AccDes= 0.00D+00 IRadAn=         4 IDoV= 1 UseB2=F ITyADJ=14
 ICtDFT=  3500011 ScaDFX=  1.000000  1.000000  1.000000  1.000000
 FoFCou: FMM=F IPFlag=           0 FMFlag=      100000 FMFlg1=           0
         NFxFlg=           0 DoJE=T BraDBF=F KetDBF=T FulRan=T
         wScrn=  0.000000 ICntrl=       500 IOpCl=  0 I1Cent=   200000004 NGrid=           0
         NMat0=    1 NMatS0=      1 NMatT0=    0 NMatD0=    1 NMtDS0=    0 NMtDT0=    0
 Petite list used in FoFCou.
 Keep J ints in memory in canonical form, NReq=133843288.
 Requested convergence on RMS density matrix=1.00D-08 within  32 cycles.
 Requested convergence on MAX density matrix=1.00D-06.
 Requested convergence on             energy=1.00D-06.
 No special actions if energy rises.
 Integral accuracy reduced to 1.0D-05 until final iterations.
 Initial convergence to 1.0D-05 achieved.  Increase integral accuracy.
 SCF Done:  E(RPBE-PBE) =  -794.571020027     A.U. after   17 cycles
            NFock= 17  Conv=0.35D-08     -V/T= 2.0043
 QCSCF skips out because SCF is already converged.
 Calling FoFJK, ICntrl=      2527 FMM=F ISym2X=0 I1Cent= 0 IOpClX= 0 NMat=1 NMatS=1 NMatT=0.
 ***** Axes restored to original set *****
 -------------------------------------------------------------------
 Center     Atomic                   Forces (Hartrees/Bohr)
 Number     Number              X              Y              Z
 -------------------------------------------------------------------
      1        6          -0.072731041    0.001971883    0.027889688
      2        6           0.046058094   -0.001805328   -0.019342721
      3        6           0.038867517   -0.000309602    0.011274894
      4        6           0.032036758    0.003200885   -0.016368370
      5       16          -0.002673488    0.017234028    0.013185882
      6        6          -0.014357950   -0.019321267   -0.011402499
      7        7          -0.003385225   -0.016926940   -0.000634113
      8        7          -0.005269491    0.004825706   -0.000277364
      9        7           0.013199902    0.002252568    0.002927100
     10        6          -0.007563478    0.006100287   -0.002639364
     11        1           0.005361413    0.000004328   -0.000422180
     12        1          -0.007725127    0.015883130   -0.006775919
     13        1          -0.011064325   -0.012296238   -0.010418114
     14        1          -0.016866470    0.003282054    0.009346597
     15        1           0.003521706   -0.016569574    0.004652402
     16        1           0.000207109   -0.000293046    0.000165904
     17        1           0.002384094    0.012767127   -0.001161823
 -------------------------------------------------------------------
 Cartesian Forces:  Max     0.072731041 RMS     0.017132314

 GradGradGradGradGradGradGradGradGradGradGradGradGradGradGradGradGradGrad
 Berny optimization.
 Using GEDIIS/GDIIS optimizer.
 FormGI is forming the generalized inverse of G from B-inverse, IUseBI=4.
 Internal  Forces:  Max     0.072767396 RMS     0.012609403
 Search for a local minimum.
 Step number   2 out of a maximum of   81
 All quantities printed in internal units (Hartrees-Bohrs-Radians)
 Mixed Optimization -- RFO/linear search
 Update second derivatives using D2CorX and points    1    2
 DE= -2.80D-02 DEPred=-9.07D-02 R= 3.09D-01
 Trust test= 3.09D-01 RLast= 3.73D-01 DXMaxT set to 3.00D-01
 ITU=  0  0
 Use linear search instead of GDIIS.
     Eigenvalues ---    0.00238   0.00284   0.00499   0.00499   0.00501
     Eigenvalues ---    0.00501   0.00584   0.01738   0.02209   0.02267
     Eigenvalues ---    0.02321   0.02379   0.04777   0.05198   0.05930
     Eigenvalues ---    0.06320   0.11818   0.14245   0.15974   0.16000
     Eigenvalues ---    0.16000   0.16013   0.22285   0.23094   0.23483
     Eigenvalues ---    0.23978   0.24984   0.25182   0.25332   0.29739
     Eigenvalues ---    0.30209   0.35859   0.37229   0.37230   0.37230
     Eigenvalues ---    0.37230   0.37230   0.43017   0.44337   0.52084
     Eigenvalues ---    0.54540   0.57310   0.58808   0.59606   0.87548
 RFO step:  Lambda=-4.91440320D-02 EMin= 2.38020669D-03
 Quartic linear search produced a step of  0.33154.
 Maximum step size (   0.300) exceeded in Quadratic search.
    -- Step size scaled by   0.833
 Iteration  1 RMS(Cart)=  0.22110595 RMS(Int)=  0.01612437
 Iteration  2 RMS(Cart)=  0.04226054 RMS(Int)=  0.00061685
 Iteration  3 RMS(Cart)=  0.00074619 RMS(Int)=  0.00055253
 Iteration  4 RMS(Cart)=  0.00000062 RMS(Int)=  0.00055253
 Variable       Old X    -DE/DX   Delta X   Delta X   Delta X     New X
                                 (Linear)    (Quad)   (Total)
    R1        2.38935  -0.07277  -0.02473  -0.08128  -0.10601   2.28334
    R2        2.02743   0.00515   0.00180   0.01165   0.01345   2.04087
    R3        2.84175  -0.02265  -0.01016  -0.06214  -0.07229   2.76945
    R4        2.91807  -0.00191   0.01515  -0.01662  -0.00147   2.91660
    R5        2.04464   0.01882   0.00751   0.04176   0.04927   2.09391
    R6        2.04608   0.01931   0.00798   0.04261   0.05059   2.09667
    R7        3.45824  -0.00109   0.01254  -0.01084   0.00171   3.45994
    R8        2.04360   0.01736   0.00716   0.03830   0.04546   2.08906
    R9        2.04427   0.01743   0.00738   0.03830   0.04568   2.08995
   R10        3.40092  -0.01644  -0.00646  -0.05512  -0.06158   3.33935
   R11        2.54198   0.00478   0.00058   0.00791   0.00854   2.55053
   R12        2.64875   0.01473   0.00569   0.02684   0.03259   2.68133
   R13        2.51253   0.00435   0.00062   0.00508   0.00568   2.51820
   R14        2.52638   0.00483   0.00232   0.00447   0.00673   2.53312
   R15        1.92763   0.00036   0.00003   0.00076   0.00079   1.92842
   R16        2.51791   0.00796   0.00165   0.01231   0.01395   2.53186
   R17        2.03683   0.01144   0.00491   0.02509   0.03000   2.06684
    A1        2.04946  -0.01012   0.04603  -0.05674  -0.01096   2.03850
    A2        1.87534   0.00312  -0.01170   0.02838   0.01618   1.89151
    A3        1.85309   0.00482  -0.01908   0.02871   0.00970   1.86278
    A4        1.89505   0.00324  -0.00517   0.01775   0.01220   1.90724
    A5        1.88528   0.00107  -0.00841   0.00196  -0.00649   1.87879
    A6        1.90169  -0.00190  -0.00296  -0.01970  -0.02282   1.87887
    A7        2.04317  -0.00578   0.04394  -0.03842   0.00409   2.04726
    A8        1.84636   0.00916  -0.02131   0.03822   0.01738   1.86374
    A9        1.92828   0.00079   0.00585   0.02981   0.03351   1.96179
   A10        1.84582  -0.00610  -0.02149  -0.06008  -0.08053   1.76529
   A11        1.88429   0.00410  -0.00873   0.04765   0.03607   1.92036
   A12        1.91128  -0.00247   0.00022  -0.02334  -0.02335   1.88793
   A13        1.99846  -0.05096   0.02912  -0.19987  -0.17075   1.82772
   A14        2.19775  -0.00462  -0.00231  -0.01732  -0.02012   2.17763
   A15        2.19946  -0.00104  -0.00174  -0.00468  -0.00694   2.19252
   A16        1.88554   0.00565   0.00391   0.02089   0.02454   1.91007
   A17        1.80091  -0.00697  -0.00515  -0.02629  -0.03129   1.76961
   A18        2.03326   0.00852   0.00575   0.02704   0.03280   2.06606
   A19        2.12431  -0.00437  -0.00309  -0.01409  -0.01719   2.10712
   A20        2.12561  -0.00415  -0.00266  -0.01295  -0.01562   2.10999
   A21        1.79018  -0.00157  -0.00213  -0.00489  -0.00701   1.78316
   A22        1.91466  -0.00562  -0.00239  -0.01669  -0.01898   1.89568
   A23        2.19487   0.00915   0.00471   0.04091   0.04554   2.24042
   A24        2.17366  -0.00354  -0.00232  -0.02423  -0.02662   2.14704
   A25        3.14324  -0.00305   0.00055  -0.05839  -0.05784   3.08540
   A26        3.25912  -0.00649   0.03897   0.04652   0.08548   3.34460
   A27        3.14459  -0.00061   0.00099  -0.00772  -0.00672   3.13787
   A28        3.10939   0.00169  -0.01068  -0.01456  -0.02523   3.08416
    D1        1.10996   0.00191   0.02081   0.06741   0.08924   1.19920
    D2       -3.12285  -0.00257   0.00621  -0.00348   0.00254  -3.12031
    D3       -1.05587   0.00019  -0.00287   0.00648   0.00319  -1.05268
    D4       -1.02039   0.00237   0.00889   0.05578   0.06547  -0.95492
    D5        1.02998  -0.00212  -0.00571  -0.01510  -0.02123   1.00876
    D6        3.09696   0.00064  -0.01479  -0.00515  -0.02058   3.07639
    D7       -3.08021   0.00226   0.02035   0.06839   0.08957  -2.99064
    D8       -1.02983  -0.00223   0.00576  -0.00249   0.00287  -1.02697
    D9        1.03715   0.00053  -0.00333   0.00746   0.00352   1.04066
   D10       -1.18654   0.00065  -0.04620  -0.18478  -0.23115  -1.41769
   D11        3.04598  -0.00315  -0.03170  -0.16729  -0.19896   2.84702
   D12        1.00142   0.00083  -0.01518  -0.13274  -0.14777   0.85365
   D13       -0.83525  -0.00048  -0.02345  -0.11506  -0.13809  -0.97334
   D14        2.34193  -0.00027  -0.01165  -0.07017  -0.08223   2.25971
   D15       -3.12712   0.00116   0.00757   0.04230   0.04981  -3.07730
   D16       -0.01580   0.00090  -0.00247   0.00382   0.00128  -0.01452
   D17        3.11750  -0.00127  -0.00683  -0.04180  -0.04899   3.06851
   D18       -0.02334  -0.00065  -0.00658  -0.03181  -0.03852  -0.06186
   D19        0.00622  -0.00093   0.00322  -0.00299   0.00034   0.00656
   D20       -3.13462  -0.00031   0.00347   0.00700   0.01081  -3.12381
   D21        0.02184  -0.00053   0.00113  -0.00337  -0.00227   0.01957
   D22       -3.12228  -0.00040   0.00028  -0.00443  -0.00409  -3.12637
   D23       -0.01801  -0.00009   0.00077   0.00130   0.00220  -0.01581
   D24        3.12611  -0.00022   0.00161   0.00236   0.00403   3.13014
   D25        0.00629   0.00055  -0.00242   0.00088  -0.00160   0.00468
   D26       -3.13605  -0.00006  -0.00266  -0.00893  -0.01136   3.13578
         Item               Value     Threshold  Converged?
 Maximum Force            0.072767     0.000450     NO 
 RMS     Force            0.012609     0.000300     NO 
 Maximum Displacement     0.746266     0.001800     NO 
 RMS     Displacement     0.246200     0.001200     NO 
 Predicted change in Energy=-1.051828D-02
 GradGradGradGradGradGradGradGradGradGradGradGradGradGradGradGradGradGrad

                          Input orientation:                          
 ---------------------------------------------------------------------
 Center     Atomic      Atomic             Coordinates (Angstroms)
 Number     Number       Type             X           Y           Z
 ---------------------------------------------------------------------
      1          6           0        0.610031   -0.000354   -1.129509
      2          6           0       -0.445064   -0.072596   -0.545104
      3          6           0       -1.844214   -0.169942   -0.120029
      4          6           0       -2.100264   -0.387196    1.386396
      5         16           0       -1.697984    0.997417    2.514802
      6          6           0        0.046832    0.878037    2.767844
      7          7           0        0.684827   -0.219611    3.225849
      8          7           0        1.938840    0.222455    3.314083
      9          7           0        2.189414    1.497647    2.985524
     10          6           0        0.977198    1.939746    2.624763
     11          1           0        1.579239    0.079583   -1.599199
     12          1           0       -2.374905    0.743905   -0.453222
     13          1           0       -2.283953   -1.031427   -0.663614
     14          1           0       -3.195716   -0.457946    1.517064
     15          1           0       -1.647117   -1.324285    1.760106
     16          1           0        2.688443   -0.394751    3.627963
     17          1           0        0.791334    2.965107    2.292622
 ---------------------------------------------------------------------
                    Distance matrix (angstroms):
                    1          2          3          4          5
     1  C    0.000000
     2  C    1.208294   0.000000
     3  C    2.659158   1.465532   0.000000
     4  C    3.718215   2.563075   1.543398   0.000000
     5  S    4.427582   3.475307   2.885558   1.830924   0.000000
     6  C    4.034615   3.481563   3.607509   2.849427   1.767106
     7  N    4.361515   3.939334   4.194450   3.341916   2.768490
     8  N    4.643370   4.545699   5.124314   4.516859   3.803408
     9  N    4.655315   4.676694   5.356815   4.950877   3.947617
    10  C    4.241858   4.015022   4.465986   4.052035   2.838429
    11  H    1.079983   2.287373   3.737677   4.761344   5.339252
    12  H    3.149782   2.097475   1.108047   2.176927   3.054776
    13  H    3.107299   2.077237   1.109510   2.156691   3.816005
    14  H    4.658052   3.459352   2.142330   1.105484   2.314468
    15  H    3.898383   2.885421   2.215009   1.105956   2.441814
    16  H    5.206620   5.228493   5.885827   5.287381   4.734766
    17  H    4.531866   4.336935   4.753476   4.518907   3.180861
                    6          7          8          9         10
     6  C    0.000000
     7  N    1.349681   0.000000
     8  N    2.075539   1.332575   0.000000
     9  N    2.240973   2.295760   1.340467   0.000000
    10  C    1.418901   2.260444   2.085427   1.339801   0.000000
    11  H    4.696473   4.916358   4.928496   4.837655   4.654516
    12  H    4.032129   4.881177   5.750904   5.764210   4.705383
    13  H    4.566565   4.959901   5.935173   6.302653   5.502400
    14  H    3.723360   4.246806   5.482324   5.914418   4.938536
    15  H    2.955541   2.967604   4.203134   4.917715   4.276513
    16  H    3.055799   2.051061   1.020475   2.059837   3.063437
    17  H    2.266270   3.320344   3.143612   2.142005   1.093723
                   11         12         13         14         15
    11  H    0.000000
    12  H    4.170113   0.000000
    13  H    4.127216   1.790068   0.000000
    14  H    5.727148   2.449532   2.432191   0.000000
    15  H    4.864684   3.115431   2.523043   1.791024   0.000000
    16  H    5.364565   6.602281   6.599070   6.251657   4.811446
    17  H    4.908494   4.743255   5.845426   5.311812   4.962712
                   16         17
    16  H    0.000000
    17  H    4.082990   0.000000
 Stoichiometry    C6H7N3S
 Framework group  C1[X(C6H7N3S)]
 Deg. of freedom    45
 Full point group                 C1      NOp   1
 Largest Abelian subgroup         C1      NOp   1
 Largest concise Abelian subgroup C1      NOp   1
                         Standard orientation:                         
 ---------------------------------------------------------------------
 Center     Atomic      Atomic             Coordinates (Angstroms)
 Number     Number       Type             X           Y           Z
 ---------------------------------------------------------------------
      1          6           0        1.584222    2.620412   -0.179903
      2          6           0        1.923611    1.468507   -0.046099
      3          6           0        2.614935    0.179555    0.045871
      4          6           0        1.804102   -1.006199    0.610330
      5         16           0        0.429576   -1.647481   -0.415202
      6          6           0       -0.915875   -0.545293   -0.102777
      7          7           0       -1.414971   -0.267134    1.119994
      8          7           0       -2.439946    0.526630    0.811580
      9          7           0       -2.681728    0.781304   -0.482072
     10          6           0       -1.702945    0.099267   -1.091889
     11          1           0        1.223083    3.631204   -0.299236
     12          1           0        2.997003   -0.084471   -0.960152
     13          1           0        3.491199    0.333702    0.708753
     14          1           0        2.483273   -1.878294    0.626822
     15          1           0        1.452813   -0.823063    1.642898
     16          1           0       -3.027954    0.927024    1.543223
     17          1           0       -1.584413    0.070507   -2.178790
 ---------------------------------------------------------------------
 Rotational constants (GHZ):           1.6309820           0.8899459           0.6789364
 Standard basis: CC-pVDZ (5D, 7F)
 There are   189 symmetry adapted cartesian basis functions of A   symmetry.
 There are   179 symmetry adapted basis functions of A   symmetry.
   179 basis functions,   417 primitive gaussians,   189 cartesian basis functions
    40 alpha electrons       40 beta electrons
       nuclear repulsion energy       563.1577844513 Hartrees.
 NAtoms=   17 NActive=   17 NUniq=   17 SFac= 1.00D+00 NAtFMM=   60 NAOKFM=F Big=F
 Integral buffers will be    131072 words long.
 Raffenetti 2 integral format.
 Two-electron integral symmetry is turned on.
 Nuclear repulsion after empirical dispersion term =      563.1394266664 Hartrees.
 One-electron integrals computed using PRISM.
 NBasis=   179 RedAO= T EigKep=  4.14D-04  NBF=   179
 NBsUse=   179 1.00D-06 EigRej= -1.00D+00 NBFU=   179
 Initial guess from the checkpoint file:  "CID_130652087_JID_0_input.chk"
 B after Tr=    -0.000000   -0.000000    0.000000
         Rot=    0.997913   -0.052824    0.014727    0.034098 Ang=  -7.40 deg.
 ExpMin= 1.22D-01 ExpMax= 1.11D+05 ExpMxC= 1.07D+03 IAcc=2 IRadAn=         4 AccDes= 0.00D+00
 Harris functional with IExCor= 1009 and IRadAn=       4 diagonalized for initial guess.
 HarFok:  IExCor= 1009 AccDes= 0.00D+00 IRadAn=         4 IDoV= 1 UseB2=F ITyADJ=14
 ICtDFT=  3500011 ScaDFX=  1.000000  1.000000  1.000000  1.000000
 FoFCou: FMM=F IPFlag=           0 FMFlag=      100000 FMFlg1=           0
         NFxFlg=           0 DoJE=T BraDBF=F KetDBF=T FulRan=T
         wScrn=  0.000000 ICntrl=       500 IOpCl=  0 I1Cent=   200000004 NGrid=           0
         NMat0=    1 NMatS0=      1 NMatT0=    0 NMatD0=    1 NMtDS0=    0 NMtDT0=    0
 Petite list used in FoFCou.
 Keep J ints in memory in canonical form, NReq=133843288.
 Requested convergence on RMS density matrix=1.00D-08 within  32 cycles.
 Requested convergence on MAX density matrix=1.00D-06.
 Requested convergence on             energy=1.00D-06.
 No special actions if energy rises.
 Integral accuracy reduced to 1.0D-05 until final iterations.
 Initial convergence to 1.0D-05 achieved.  Increase integral accuracy.
 SCF Done:  E(RPBE-PBE) =  -794.583267436     A.U. after   16 cycles
            NFock= 16  Conv=0.68D-08     -V/T= 2.0042
 QCSCF skips out because SCF is already converged.
 Calling FoFJK, ICntrl=      2527 FMM=F ISym2X=0 I1Cent= 0 IOpClX= 0 NMat=1 NMatS=1 NMatT=0.
 ***** Axes restored to original set *****
 -------------------------------------------------------------------
 Center     Atomic                   Forces (Hartrees/Bohr)
 Number     Number              X              Y              Z
 -------------------------------------------------------------------
      1        6           0.031207749    0.002378342   -0.012093832
      2        6          -0.031284968   -0.001123953    0.009216410
      3        6           0.008177596    0.000436573    0.006739946
      4        6          -0.002997177   -0.000725400   -0.004835482
      5       16          -0.000398744    0.002566430    0.000903363
      6        6          -0.006989276    0.003374034   -0.003798594
      7        7          -0.000363730    0.002514291   -0.001597338
      8        7           0.007505398   -0.000884432    0.001072226
      9        7           0.003207004   -0.003366888    0.002349943
     10        6          -0.005531050   -0.001758616   -0.000330566
     11        1          -0.000425046   -0.000270682    0.001353633
     12        1          -0.001554582    0.000866880   -0.000193876
     13        1          -0.003195405   -0.000881857   -0.000538847
     14        1          -0.002143367   -0.003244622    0.001847944
     15        1           0.001911488    0.000471696    0.000587188
     16        1           0.000736952   -0.000148038   -0.000226160
     17        1           0.002137158   -0.000203758   -0.000455958
 -------------------------------------------------------------------
 Cartesian Forces:  Max     0.031284968 RMS     0.007128195

 GradGradGradGradGradGradGradGradGradGradGradGradGradGradGradGradGradGrad
 Berny optimization.
 Using GEDIIS/GDIIS optimizer.
 FormGI is forming the generalized inverse of G from B-inverse, IUseBI=4.
 Internal  Forces:  Max     0.032197913 RMS     0.005255004
 Search for a local minimum.
 Step number   3 out of a maximum of   81
 All quantities printed in internal units (Hartrees-Bohrs-Radians)
 Mixed Optimization -- RFO/linear search
 Update second derivatives using D2CorX and points    2    3
 DE= -1.22D-02 DEPred=-1.05D-02 R= 1.16D+00
 TightC=F SS=  1.41D+00  RLast= 5.09D-01 DXNew= 5.0454D-01 1.5259D+00
 Trust test= 1.16D+00 RLast= 5.09D-01 DXMaxT set to 5.05D-01
 ITU=  1  0  0
 Use linear search instead of GDIIS.
     Eigenvalues ---    0.00238   0.00246   0.00499   0.00499   0.00501
     Eigenvalues ---    0.00502   0.00575   0.01752   0.02209   0.02263
     Eigenvalues ---    0.02323   0.02373   0.04502   0.05126   0.05866
     Eigenvalues ---    0.06209   0.11925   0.14439   0.15772   0.16000
     Eigenvalues ---    0.16002   0.16015   0.21452   0.22274   0.23185
     Eigenvalues ---    0.24515   0.24987   0.25224   0.25630   0.29989
     Eigenvalues ---    0.30124   0.35271   0.37229   0.37230   0.37230
     Eigenvalues ---    0.37230   0.37270   0.42932   0.44338   0.52248
     Eigenvalues ---    0.54722   0.57408   0.59022   0.69263   0.92897
 RFO step:  Lambda=-9.87763626D-03 EMin= 2.37994684D-03
 Quartic linear search produced a step of -0.10826.
 Maximum step size (   0.505) exceeded in Quadratic search.
    -- Step size scaled by   0.854
 Iteration  1 RMS(Cart)=  0.15887464 RMS(Int)=  0.03417714
 Iteration  2 RMS(Cart)=  0.10350611 RMS(Int)=  0.01085985
 Iteration  3 RMS(Cart)=  0.04145055 RMS(Int)=  0.00092663
 Iteration  4 RMS(Cart)=  0.00139662 RMS(Int)=  0.00003701
 Iteration  5 RMS(Cart)=  0.00000118 RMS(Int)=  0.00003701
 Iteration  6 RMS(Cart)=  0.00000000 RMS(Int)=  0.00003701
 Variable       Old X    -DE/DX   Delta X   Delta X   Delta X     New X
                                 (Linear)    (Quad)   (Total)
    R1        2.28334   0.03220   0.01148   0.01356   0.02504   2.30838
    R2        2.04087  -0.00099  -0.00146   0.00048  -0.00098   2.03989
    R3        2.76945   0.00003   0.00783  -0.01332  -0.00549   2.76396
    R4        2.91660  -0.00370   0.00016  -0.00116  -0.00100   2.91560
    R5        2.09391   0.00152  -0.00533   0.01191   0.00658   2.10048
    R6        2.09667   0.00222  -0.00548   0.01360   0.00812   2.10479
    R7        3.45994   0.00037  -0.00018   0.00798   0.00779   3.46773
    R8        2.08906   0.00255  -0.00492   0.01327   0.00835   2.09741
    R9        2.08995   0.00058  -0.00495   0.00968   0.00473   2.09468
   R10        3.33935   0.00029   0.00667  -0.00989  -0.00323   3.33612
   R11        2.55053   0.00273  -0.00092   0.00464   0.00371   2.55424
   R12        2.68133  -0.00026  -0.00353   0.00574   0.00221   2.68354
   R13        2.51820   0.00355  -0.00061   0.00504   0.00442   2.52263
   R14        2.53312  -0.00296  -0.00073  -0.00197  -0.00270   2.53042
   R15        1.92842   0.00056  -0.00009   0.00100   0.00091   1.92933
   R16        2.53186   0.00680  -0.00151   0.01034   0.00883   2.54069
   R17        2.06684  -0.00042  -0.00325   0.00488   0.00163   2.06847
    A1        2.03850  -0.00638   0.00119   0.00734   0.00853   2.04702
    A2        1.89151   0.00259  -0.00175   0.00498   0.00322   1.89474
    A3        1.86278   0.00394  -0.00105   0.00832   0.00727   1.87005
    A4        1.90724   0.00039  -0.00132  -0.00269  -0.00404   1.90320
    A5        1.87879   0.00033   0.00070  -0.00596  -0.00529   1.87350
    A6        1.87887  -0.00050   0.00247  -0.01381  -0.01141   1.86746
    A7        2.04726  -0.00876  -0.00044  -0.00218  -0.00253   2.04473
    A8        1.86374   0.00484  -0.00188   0.01404   0.01219   1.87593
    A9        1.96179   0.00105  -0.00363   0.00622   0.00270   1.96449
   A10        1.76529   0.00350   0.00872  -0.00572   0.00298   1.76827
   A11        1.92036   0.00189  -0.00391  -0.00362  -0.00740   1.91296
   A12        1.88793  -0.00173   0.00253  -0.01024  -0.00773   1.88020
   A13        1.82772  -0.01481   0.01849  -0.04540  -0.02691   1.80081
   A14        2.17763  -0.00169   0.00218  -0.00874  -0.00652   2.17112
   A15        2.19252   0.00665   0.00075   0.01640   0.01719   2.20971
   A16        1.91007  -0.00488  -0.00266  -0.00852  -0.01115   1.89892
   A17        1.76961   0.00578   0.00339   0.00968   0.01306   1.78268
   A18        2.06606  -0.00409  -0.00355  -0.00566  -0.00922   2.05684
   A19        2.10712   0.00243   0.00186   0.00422   0.00608   2.11321
   A20        2.10999   0.00166   0.00169   0.00145   0.00314   2.11313
   A21        1.78316   0.00147   0.00076   0.00227   0.00302   1.78618
   A22        1.89568   0.00172   0.00205   0.00218   0.00421   1.89989
   A23        2.24042   0.00118  -0.00493   0.01448   0.00955   2.24996
   A24        2.14704  -0.00290   0.00288  -0.01659  -0.01371   2.13332
   A25        3.08540  -0.00188   0.00626  -0.10596  -0.09970   2.98570
   A26        3.34460  -0.01399  -0.00925  -0.46137  -0.47062   2.87398
   A27        3.13787  -0.00087   0.00073  -0.03946  -0.03874   3.09913
   A28        3.08416   0.00431   0.00273   0.14906   0.15180   3.23596
    D1        1.19920  -0.00322  -0.00966   0.02410   0.01440   1.21361
    D2       -3.12031  -0.00028  -0.00028   0.02539   0.02512  -3.09519
    D3       -1.05268   0.00127  -0.00035   0.02529   0.02497  -1.02771
    D4       -0.95492  -0.00224  -0.00709   0.01410   0.00700  -0.94792
    D5        1.00876   0.00070   0.00230   0.01539   0.01771   1.02647
    D6        3.07639   0.00225   0.00223   0.01529   0.01756   3.09395
    D7       -2.99064  -0.00204  -0.00970   0.03518   0.02543  -2.96521
    D8       -1.02697   0.00090  -0.00031   0.03646   0.03615  -0.99082
    D9        1.04066   0.00245  -0.00038   0.03637   0.03599   1.07666
   D10       -1.41769   0.00380   0.02502  -0.19420  -0.16920  -1.58688
   D11        2.84702  -0.00034   0.02154  -0.20647  -0.18486   2.66215
   D12        0.85365  -0.00081   0.01600  -0.19074  -0.17479   0.67886
   D13       -0.97334   0.00112   0.01495  -0.11242  -0.09752  -1.07086
   D14        2.25971   0.00010   0.00890  -0.09879  -0.08984   2.16986
   D15       -3.07730  -0.00114  -0.00539   0.00918   0.00370  -3.07360
   D16       -0.01452   0.00025  -0.00014  -0.00138  -0.00151  -0.01603
   D17        3.06851   0.00048   0.00530  -0.01282  -0.00751   3.06100
   D18       -0.06186   0.00012   0.00417  -0.01961  -0.01548  -0.07734
   D19        0.00656  -0.00045  -0.00004  -0.00072  -0.00078   0.00578
   D20       -3.12381  -0.00081  -0.00117  -0.00751  -0.00875  -3.13256
   D21        0.01957   0.00000   0.00025   0.00329   0.00353   0.02311
   D22       -3.12637   0.00021   0.00044   0.00442   0.00487  -3.12150
   D23       -0.01581  -0.00021  -0.00024  -0.00364  -0.00388  -0.01969
   D24        3.13014  -0.00041  -0.00044  -0.00479  -0.00522   3.12491
   D25        0.00468   0.00040   0.00017   0.00242   0.00262   0.00730
   D26        3.13578   0.00077   0.00123   0.00900   0.01012  -3.13729
         Item               Value     Threshold  Converged?
 Maximum Force            0.032198     0.000450     NO 
 RMS     Force            0.005255     0.000300     NO 
 Maximum Displacement     1.360211     0.001800     NO 
 RMS     Displacement     0.244566     0.001200     NO 
 Predicted change in Energy=-6.867914D-03
 GradGradGradGradGradGradGradGradGradGradGradGradGradGradGradGradGradGrad

                          Input orientation:                          
 ---------------------------------------------------------------------
 Center     Atomic      Atomic             Coordinates (Angstroms)
 Number     Number       Type             X           Y           Z
 ---------------------------------------------------------------------
      1          6           0        0.566761    0.174565   -0.918044
      2          6           0       -0.636928    0.033247   -0.765301
      3          6           0       -1.964048   -0.175396   -0.186951
      4          6           0       -2.043801   -0.401607    1.337159
      5         16           0       -1.662221    1.031678    2.417661
      6          6           0        0.074015    0.874851    2.696098
      7          7           0        0.657472   -0.182171    3.303737
      8          7           0        1.936786    0.195402    3.356607
      9          7           0        2.253200    1.402730    2.871566
     10          6           0        1.065784    1.856846    2.434037
     11          1           0        1.639276    0.290601   -0.879406
     12          1           0       -2.608596    0.688124   -0.459690
     13          1           0       -2.399108   -1.074762   -0.679319
     14          1           0       -3.107912   -0.588655    1.591253
     15          1           0       -1.458003   -1.282750    1.667475
     16          1           0        2.650483   -0.415478    3.756379
     17          1           0        0.953781    2.838564    1.963081
 ---------------------------------------------------------------------
                    Distance matrix (angstroms):
                    1          2          3          4          5
     1  C    0.000000
     2  C    1.221543   0.000000
     3  C    2.657436   1.462624   0.000000
     4  C    3.497563   2.566852   1.542868   0.000000
     5  S    4.102430   3.489891   2.886543   1.835046   0.000000
     6  C    3.714192   3.632495   3.683570   2.821561   1.765400
     7  N    4.237797   4.275389   4.365469   3.348501   2.763971
     8  N    4.488880   4.862142   5.283068   4.503295   3.812326
     9  N    4.325924   4.843050   5.443362   4.906553   3.959070
    10  C    3.783588   4.057155   4.492156   3.996657   2.850119
    11  H    1.079465   2.293546   3.698728   4.354006   4.724376
    12  H    3.249111   2.099937   1.111528   2.176045   3.048409
    13  H    3.227102   2.083353   1.113806   2.155357   3.817248
    14  H    4.514676   3.470716   2.154348   1.109902   2.323457
    15  H    3.592819   2.885206   2.218380   1.108459   2.441529
    16  H    5.151727   5.608389   6.074652   5.281016   4.741925
    17  H    3.943039   4.224243   4.713843   4.458249   3.211689
                    6          7          8          9         10
     6  C    0.000000
     7  N    1.351645   0.000000
     8  N    2.089938   1.334916   0.000000
     9  N    2.249066   2.290203   1.339038   0.000000
    10  C    1.420069   2.254038   2.090497   1.344474   0.000000
    11  H    3.946596   4.322747   4.247515   3.960244   3.709572
    12  H    4.146114   5.058457   5.955450   5.936749   4.820854
    13  H    4.616359   5.099426   6.058218   6.355370   5.503889
    14  H    3.672491   4.156434   5.401870   5.860575   4.910244
    15  H    2.839082   2.892035   4.069729   4.736525   4.100510
    16  H    3.070397   2.057040   1.020959   2.060730   3.069743
    17  H    2.273208   3.318132   3.145556   2.139032   1.094585
                   11         12         13         14         15
    11  H    0.000000
    12  H    4.287027   0.000000
    13  H    4.267645   1.788824   0.000000
    14  H    5.423379   2.466951   2.427798   0.000000
    15  H    4.307571   3.119781   2.537002   1.791585   0.000000
    16  H    4.797041   6.830160   6.753403   6.154419   4.689920
    17  H    3.878370   4.815053   5.791223   5.327423   4.784278
                   16         17
    16  H    0.000000
    17  H    4.084546   0.000000
 Stoichiometry    C6H7N3S
 Framework group  C1[X(C6H7N3S)]
 Deg. of freedom    45
 Full point group                 C1      NOp   1
 Largest Abelian subgroup         C1      NOp   1
 Largest concise Abelian subgroup C1      NOp   1
                         Standard orientation:                         
 ---------------------------------------------------------------------
 Center     Atomic      Atomic             Coordinates (Angstroms)
 Number     Number       Type             X           Y           Z
 ---------------------------------------------------------------------
      1          6           0        1.289151    2.474321   -0.085055
      2          6           0        2.086807    1.550448   -0.036350
      3          6           0        2.705369    0.237422    0.144245
      4          6           0        1.798981   -0.909630    0.637371
      5         16           0        0.526450   -1.532055   -0.529097
      6          6           0       -0.883322   -0.537437   -0.155046
      7          7           0       -1.500025   -0.508474    1.047361
      8          7           0       -2.534851    0.301500    0.812672
      9          7           0       -2.679926    0.788040   -0.426383
     10          6           0       -1.620378    0.263819   -1.066822
     11          1           0        0.464737    3.171159   -0.086726
     12          1           0        3.182666   -0.063558   -0.813404
     13          1           0        3.522582    0.359371    0.891142
[...]
    10  C    0.002542   0.000752  -0.000022   0.001849  -0.049102   0.399133
    11  H    0.461075  -0.081947   0.000242  -0.000068  -0.000014  -0.000173
    12  H    0.001874  -0.004390   0.355850  -0.031231  -0.004800  -0.000310
    13  H    0.002919   0.003918   0.342218  -0.009011   0.004506   0.000039
    14  H   -0.000291   0.003068  -0.011930   0.374798  -0.023875   0.002135
    15  H    0.001169  -0.004255  -0.016528   0.373444  -0.034312  -0.008674
    16  H    0.000042   0.000021   0.000005  -0.000003  -0.000258   0.004978
    17  H    0.000182   0.000103   0.000008  -0.000052  -0.000759  -0.047840
               7          8          9         10         11         12
     1  C    0.000137  -0.000206  -0.000309   0.002542   0.461075   0.001874
     2  C   -0.000043  -0.000538  -0.000186   0.000752  -0.081947  -0.004390
     3  C   -0.000425   0.000004   0.000013  -0.000022   0.000242   0.355850
     4  C   -0.010279   0.000210  -0.000151   0.001849  -0.000068  -0.031231
     5  S   -0.046190   0.004380   0.003627  -0.049102  -0.000014  -0.004800
     6  C    0.438149  -0.118497  -0.017175   0.399133  -0.000173  -0.000310
     7  N    6.529079   0.344919  -0.102884  -0.037240   0.000038   0.000013
     8  N    0.344919   6.040934   0.313157  -0.113113   0.000125  -0.000001
     9  N   -0.102884   0.313157   6.422024   0.521677   0.000176  -0.000000
    10  C   -0.037240  -0.113113   0.521677   4.702018   0.000233   0.000069
    11  H    0.000038   0.000125   0.000176   0.000233   0.589760   0.000004
    12  H    0.000013  -0.000001  -0.000000   0.000069   0.000004   0.595740
    13  H   -0.000058  -0.000000  -0.000000   0.000007   0.000014  -0.025725
    14  H    0.000158   0.000000   0.000003  -0.000155   0.000001  -0.003966
    15  H    0.021777  -0.000649   0.000108   0.001435   0.000002   0.006526
    16  H   -0.026963   0.381647  -0.026059   0.005851   0.000004   0.000000
    17  H    0.005622   0.004360  -0.024022   0.408542   0.000018   0.000004
              13         14         15         16         17
     1  C    0.002919  -0.000291   0.001169   0.000042   0.000182
     2  C    0.003918   0.003068  -0.004255   0.000021   0.000103
     3  C    0.342218  -0.011930  -0.016528   0.000005   0.000008
     4  C   -0.009011   0.374798   0.373444  -0.000003  -0.000052
     5  S    0.004506  -0.023875  -0.034312  -0.000258  -0.000759
     6  C    0.000039   0.002135  -0.008674   0.004978  -0.047840
     7  N   -0.000058   0.000158   0.021777  -0.026963   0.005622
     8  N   -0.000000   0.000000  -0.000649   0.381647   0.004360
     9  N   -0.000000   0.000003   0.000108  -0.026059  -0.024022
    10  C    0.000007  -0.000155   0.001435   0.005851   0.408542
    11  H    0.000014   0.000001   0.000002   0.000004   0.000018
    12  H   -0.025725  -0.003966   0.006526   0.000000   0.000004
    13  H    0.561556  -0.004969  -0.005705   0.000000   0.000001
    14  H   -0.004969   0.560993  -0.016043  -0.000001  -0.000001
    15  H   -0.005705  -0.016043   0.548907   0.000019  -0.000018
    16  H    0.000000  -0.000001   0.000019   0.491775  -0.000306
    17  H    0.000001  -0.000001  -0.000018  -0.000306   0.588644
          Atomic-Atomic Spin Densities.
               1          2          3          4          5          6
     1  C    0.101668   0.022838  -0.000182  -0.000321   0.002571  -0.004157
     2  C    0.022838   0.048508  -0.007546  -0.000689   0.007304  -0.004984
     3  C   -0.000182  -0.007546   0.031052   0.019550  -0.010743   0.002134
     4  C   -0.000321  -0.000689   0.019550   0.006125  -0.022903   0.001813
     5  S    0.002571   0.007304  -0.010743  -0.022903   0.547356  -0.047165
     6  C   -0.004157  -0.004984   0.002134   0.001813  -0.047165   0.088504
     7  N   -0.001264  -0.001045   0.000262   0.000249  -0.003901   0.023361
     8  N    0.001212   0.000394  -0.000028  -0.000020   0.000621  -0.009491
     9  N    0.000257   0.000077  -0.000004  -0.000001   0.000179  -0.002822
    10  C   -0.002467  -0.001337   0.000197   0.000079  -0.007146   0.027106
    11  H    0.001175  -0.000711  -0.000026  -0.000005   0.000027  -0.000065
    12  H   -0.000052  -0.000290  -0.001372  -0.000784   0.001903  -0.000172
    13  H   -0.000236  -0.001995  -0.000961  -0.003395   0.000981  -0.000176
    14  H    0.000018   0.000108  -0.002096   0.001863  -0.001699  -0.000115
    15  H    0.000324   0.001129  -0.002863   0.002314  -0.002240  -0.000899
    16  H    0.000027   0.000007  -0.000001   0.000001   0.000000   0.000045
    17  H    0.000053   0.000025  -0.000006  -0.000001   0.000396   0.000111
               7          8          9         10         11         12
     1  C   -0.001264   0.001212   0.000257  -0.002467   0.001175  -0.000052
     2  C   -0.001045   0.000394   0.000077  -0.001337  -0.000711  -0.000290
     3  C    0.000262  -0.000028  -0.000004   0.000197  -0.000026  -0.001372
     4  C    0.000249  -0.000020  -0.000001   0.000079  -0.000005  -0.000784
     5  S   -0.003901   0.000621   0.000179  -0.007146   0.000027   0.001903
     6  C    0.023361  -0.009491  -0.002822   0.027106  -0.000065  -0.000172
     7  N    0.048840  -0.020408   0.000294   0.000920  -0.000021  -0.000008
     8  N   -0.020408   0.128079   0.007131  -0.007065   0.000040   0.000001
     9  N    0.000294   0.007131  -0.014592  -0.005247   0.000005   0.000000
    10  C    0.000920  -0.007065  -0.005247   0.094445  -0.000070  -0.000024
    11  H   -0.000021   0.000040   0.000005  -0.000070  -0.005062   0.000003
    12  H   -0.000008   0.000001   0.000000  -0.000024   0.000003  -0.000537
    13  H   -0.000032   0.000003   0.000000  -0.000012   0.000010   0.001438
    14  H   -0.000005   0.000001   0.000000  -0.000006   0.000000   0.000175
    15  H   -0.000720   0.000072   0.000005  -0.000104   0.000003   0.000116
    16  H   -0.000075   0.000871  -0.000034  -0.000115   0.000001   0.000000
    17  H   -0.000017   0.000017   0.000136   0.000312   0.000002   0.000001
              13         14         15         16         17
     1  C   -0.000236   0.000018   0.000324   0.000027   0.000053
     2  C   -0.001995   0.000108   0.001129   0.000007   0.000025
     3  C   -0.000961  -0.002096  -0.002863  -0.000001  -0.000006
     4  C   -0.003395   0.001863   0.002314   0.000001  -0.000001
     5  S    0.000981  -0.001699  -0.002240   0.000000   0.000396
     6  C   -0.000176  -0.000115  -0.000899   0.000045   0.000111
     7  N   -0.000032  -0.000005  -0.000720  -0.000075  -0.000017
     8  N    0.000003   0.000001   0.000072   0.000871   0.000017
     9  N    0.000000   0.000000   0.000005  -0.000034   0.000136
    10  C   -0.000012  -0.000006  -0.000104  -0.000115   0.000312
    11  H    0.000010   0.000000   0.000003   0.000001   0.000002
    12  H    0.001438   0.000175   0.000116   0.000000   0.000001
    13  H    0.019412   0.000679   0.000957   0.000000   0.000000
    14  H    0.000679   0.002559   0.000948   0.000000   0.000000
    15  H    0.000957   0.000948   0.007511   0.000005   0.000002
    16  H    0.000000   0.000000   0.000005  -0.003956   0.000006
    17  H    0.000000   0.000000   0.000002   0.000006  -0.004976
 Mulliken charges and spin densities:
               1          2
     1  C   -0.305927   0.121466
     2  C    0.345282   0.061793
     3  C   -0.022870   0.027365
     4  C   -0.157587   0.003875
     5  S    0.331079   0.465543
     6  C   -0.041743   0.073031
     7  N   -0.115810   0.046428
     8  N    0.143267   0.101431
     9  N   -0.089996  -0.014614
    10  C    0.155524   0.099468
    11  H    0.030510  -0.004693
    12  H    0.110343   0.000399
    13  H    0.130292   0.016673
    14  H    0.120075   0.002429
    15  H    0.132798   0.006562
    16  H    0.169249  -0.003217
    17  H    0.065516  -0.003937
 Sum of Mulliken charges =   1.00000   1.00000
 Mulliken charges and spin densities with hydrogens summed into heavy atoms:
               1          2
     1  C   -0.275417   0.116773
     2  C    0.345282   0.061793
     3  C    0.217764   0.044437
     4  C    0.095286   0.012866
     5  S    0.331079   0.465543
     6  C   -0.041743   0.073031
     7  N   -0.115810   0.046428
     8  N    0.312516   0.098213
     9  N   -0.089996  -0.014614
    10  C    0.221040   0.095530
 Electronic spatial extent (au):  <R**2>=           1558.4795
 Charge=              1.0000 electrons
 Dipole moment (field-independent basis, Debye):
    X=              1.2689    Y=              0.3122    Z=              0.7339  Tot=              1.4988
 Quadrupole moment (field-independent basis, Debye-Ang):
   XX=            -38.4194   YY=            -50.4655   ZZ=            -55.1711
   XY=             -4.8669   XZ=             -1.9339   YZ=              2.1725
 Traceless Quadrupole moment (field-independent basis, Debye-Ang):
   XX=              9.5993   YY=             -2.4468   ZZ=             -7.1525
   XY=             -4.8669   XZ=             -1.9339   YZ=              2.1725
 Octapole moment (field-independent basis, Debye-Ang**2):
  XXX=             19.7526  YYY=             17.7189  ZZZ=              2.1691  XYY=             -2.3310
  XXY=             -0.0602  XXZ=             26.4043  XZZ=            -15.9987  YZZ=             -0.1150
  YYZ=             -2.9521  XYZ=             -9.8864
 Hexadecapole moment (field-independent basis, Debye-Ang**3):
 XXXX=          -1020.2268 YYYY=           -517.6614 ZZZZ=           -216.0356 XXXY=            -25.9162
 XXXZ=            -53.5356 YYYX=            -39.3532 YYYZ=            -16.8053 ZZZX=             -4.7058
 ZZZY=             16.6307 XXYY=           -285.1922 XXZZ=           -179.7205 YYZZ=           -140.5989
 XXYZ=             27.9602 YYXZ=             -3.9577 ZZXY=            -16.2823
 N-N= 5.734834646591D+02 E-N=-3.000816581641D+03  KE= 7.909090317304D+02
                          Isotropic Fermi Contact Couplings
        Atom                 a.u.       MegaHertz       Gauss      10(-4) cm-1
     1  C(13)              0.01101      12.38097       4.41784       4.12985
     2  C(13)              0.00056       0.62661       0.22359       0.20901
     3  C(13)              0.01038      11.67236       4.16499       3.89348
     4  C(13)             -0.00649      -7.29157      -2.60181      -2.43221
     5  S(33)              0.05691      19.54777       6.97513       6.52044
     6  C(13)              0.00219       2.45959       0.87764       0.82043
     7  N(14)              0.00484       1.56334       0.55784       0.52147
     8  N(14)              0.01866       6.02907       2.15132       2.01108
     9  N(14)              0.00089       0.28879       0.10305       0.09633
    10  C(13)              0.01233      13.86331       4.94677       4.62430
    11  H(1)              -0.00193      -8.60881      -3.07184      -2.87159
    12  H(1)              -0.00044      -1.94675      -0.69465      -0.64937
    13  H(1)               0.00667      29.83408      10.64554       9.95158
    14  H(1)               0.00117       5.21741       1.86170       1.74034
    15  H(1)               0.00321      14.34832       5.11984       4.78608
    16  H(1)              -0.00160      -7.14297      -2.54879      -2.38264
    17  H(1)              -0.00159      -7.11762      -2.53974      -2.37418
 --------------------------------------------------------
       Center         ----  Spin Dipole Couplings  ----
                      3XX-RR        3YY-RR        3ZZ-RR
 --------------------------------------------------------
     1   Atom        0.056034      0.012110     -0.068144
     2   Atom        0.034586      0.015430     -0.050016
     3   Atom        0.005219      0.027926     -0.033145
     4   Atom       -0.010694      0.024352     -0.013658
     5   Atom       -0.799225      0.454086      0.345140
     6   Atom       -0.033439      0.083722     -0.050284
     7   Atom       -0.035408      0.100936     -0.065528
     8   Atom       -0.047017      0.156465     -0.109448
     9   Atom        0.034981     -0.044172      0.009190
    10   Atom        0.033151      0.029527     -0.062679
    11   Atom        0.003080      0.006572     -0.009652
    12   Atom        0.002491     -0.001929     -0.000561
    13   Atom        0.001762     -0.002849      0.001088
    14   Atom        0.005636     -0.002525     -0.003112
    15   Atom       -0.002441     -0.001648      0.004089
    16   Atom       -0.002089     -0.001833      0.003922
    17   Atom       -0.003904     -0.005827      0.009730
 --------------------------------------------------------
                        XY            XZ            YZ
 --------------------------------------------------------
     1   Atom        0.102581     -0.034970     -0.029381
     2   Atom        0.053449     -0.016047     -0.019213
     3   Atom        0.046743     -0.006010     -0.008851
     4   Atom        0.031398     -0.017498     -0.029901
     5   Atom        0.520766     -0.479195     -1.406747
     6   Atom        0.064865     -0.023687     -0.047987
     7   Atom        0.068630      0.006279      0.021897
     8   Atom        0.148008     -0.041523     -0.070483
     9   Atom       -0.013938     -0.005623      0.005377
    10   Atom        0.098682     -0.006368     -0.012278
    11   Atom       -0.006309      0.001313     -0.004402
    12   Atom        0.003043     -0.003740      0.000844
    13   Atom        0.002063      0.005355      0.001177
    14   Atom       -0.002028      0.004644     -0.000956
    15   Atom       -0.000450      0.000748      0.004666
    16   Atom       -0.002711     -0.012808      0.007110
    17   Atom        0.002479      0.004972      0.001246
 --------------------------------------------------------


 ---------------------------------------------------------------------------------
              Anisotropic Spin Dipole Couplings in Principal Axis System
 ---------------------------------------------------------------------------------

       Atom             a.u.   MegaHertz   Gauss  10(-4) cm-1        Axes

              Baa    -0.0779   -10.449    -3.728    -3.485  0.0844  0.2210  0.9716
     1 C(13)  Bbb    -0.0707    -9.492    -3.387    -3.166 -0.6439  0.7562 -0.1160
              Bcc     0.1486    19.941     7.115     6.651  0.7604  0.6159 -0.2062
 
              Baa    -0.0553    -7.418    -2.647    -2.475  0.0299  0.2410  0.9701
     2 C(13)  Bbb    -0.0286    -3.833    -1.368    -1.279 -0.6612  0.7326 -0.1616
              Bcc     0.0838    11.252     4.015     3.753  0.7497  0.6365 -0.1812
 
              Baa    -0.0345    -4.627    -1.651    -1.543 -0.1273  0.2321  0.9643
     3 C(13)  Bbb    -0.0313    -4.206    -1.501    -1.403  0.7791 -0.5783  0.2420
              Bcc     0.0658     8.833     3.152     2.946  0.6138  0.7821 -0.1072
 
              Baa    -0.0301    -4.042    -1.442    -1.348  0.1789  0.3922  0.9023
     4 C(13)  Bbb    -0.0291    -3.908    -1.395    -1.304  0.8712 -0.4892  0.0399
              Bcc     0.0592     7.951     2.837     2.652  0.4571  0.7790 -0.4292
 
              Baa    -1.0147   -41.601   -14.844   -13.876 -0.3797  0.7066  0.5971
     5 S(33)  Bbb    -0.9724   -39.868   -14.226   -13.298  0.8918  0.1078  0.4395
              Bcc     1.9871    81.468    29.070    27.175  0.2461  0.6994 -0.6710
 
              Baa    -0.0671    -9.011    -3.215    -3.006  0.4630  0.0816  0.8826
     6 C(13)  Bbb    -0.0614    -8.237    -2.939    -2.748  0.7949 -0.4786 -0.3728
              Bcc     0.1285    17.248     6.155     5.753  0.3920  0.8742 -0.2865
 
              Baa    -0.0694    -2.675    -0.955    -0.892  0.3613 -0.2607  0.8953
     7 N(14)  Bbb    -0.0627    -2.419    -0.863    -0.807  0.8514 -0.2994 -0.4308
              Bcc     0.1321     5.094     1.818     1.699  0.3803  0.9178  0.1138
 
              Baa    -0.1305    -5.033    -1.796    -1.679  0.5831 -0.1028  0.8059
     8 N(14)  Bbb    -0.1223    -4.715    -1.683    -1.573  0.6722 -0.4960 -0.5497
              Bcc     0.2528     9.748     3.479     3.252  0.4562  0.8622 -0.2201
 
              Baa    -0.0469    -1.809    -0.645    -0.603  0.1621  0.9837 -0.0781
     9 N(14)  Bbb     0.0081     0.313     0.112     0.104  0.2246  0.0402  0.9736
              Bcc     0.0388     1.496     0.534     0.499  0.9609 -0.1754 -0.2144
 
              Baa    -0.0702    -9.414    -3.359    -3.140 -0.5614  0.6229  0.5448
    10 C(13)  Bbb    -0.0608    -8.156    -2.910    -2.720  0.4236 -0.3492  0.8358
              Bcc     0.1309    17.570     6.269     5.861  0.7109  0.7000 -0.0678
 
              Baa    -0.0108    -5.750    -2.052    -1.918  0.0241  0.2541  0.9669
    11 H(1)   Bbb    -0.0014    -0.773    -0.276    -0.258  0.8172  0.5521 -0.1654
              Bcc     0.0122     6.523     2.327     2.176 -0.5758  0.7941 -0.1944
 
              Baa    -0.0051    -2.740    -0.978    -0.914 -0.5280  0.6462 -0.5510
    12 H(1)   Bbb    -0.0005    -0.257    -0.092    -0.086  0.1450  0.7079  0.6912
              Bcc     0.0056     2.997     1.069     1.000  0.8367  0.2851 -0.4675
 
              Baa    -0.0043    -2.278    -0.813    -0.760  0.6630 -0.5061 -0.5516
    13 H(1)   Bbb    -0.0030    -1.626    -0.580    -0.542  0.2112  0.8334 -0.5108
              Bcc     0.0073     3.904     1.393     1.302  0.7182  0.2221  0.6594
 
              Baa    -0.0051    -2.732    -0.975    -0.911 -0.3908  0.0335  0.9199
    14 H(1)   Bbb    -0.0030    -1.598    -0.570    -0.533  0.2026  0.9780  0.0505
              Bcc     0.0081     4.329     1.545     1.444  0.8979 -0.2061  0.3890
 
              Baa    -0.0045    -2.419    -0.863    -0.807  0.3430  0.8134 -0.4699
    15 H(1)   Bbb    -0.0022    -1.166    -0.416    -0.389  0.9382 -0.3219  0.1276
              Bcc     0.0067     3.585     1.279     1.196  0.0475  0.4846  0.8734
 
              Baa    -0.0128    -6.840    -2.441    -2.282  0.7169 -0.2454  0.6526
    16 H(1)   Bbb    -0.0041    -2.181    -0.778    -0.728  0.4209  0.8985 -0.1245
              Bcc     0.0169     9.022     3.219     3.009 -0.5558  0.3639  0.7474
 
              Baa    -0.0078    -4.141    -1.478    -1.381 -0.6502  0.7483  0.1315
    17 H(1)   Bbb    -0.0038    -2.033    -0.726    -0.678  0.6889  0.6537 -0.3131
              Bcc     0.0116     6.175     2.203     2.060  0.3203  0.1130  0.9406
 

 ---------------------------------------------------------------------------------

 1\1\GINC-NODE379\SP\UPBEPBE\CC-pVDZ\C6H7N3S1(1+,2)\VSC10255\17-Nov-202
 0\0\\# scf=xqc PBEPBE/cc-pVDZ EmpiricalDispersion=GD3BJ geom=check\\CI
 D_130652087_JID_0_kation\\1,2\C,0,0.7121577219,0.1108678387,-0.7515709
 483\C,0,-0.4615535876,-0.0524637368,-0.4507045071\C,0,-1.8635307591,-0
 .2487954319,-0.0882103144\C,0,-2.1179360641,-0.3556730171,1.4263449411
 \S,0,-1.74870183,1.1854882071,2.3659040754\C,0,-0.0111292685,0.9809570
 334,2.6243069277\N,0,0.5565544992,-0.2085963662,2.9198192493\N,0,1.850
 8453073,0.1103498915,3.0196431006\N,0,2.1889331687,1.389776663,2.84406
 46453\C,0,1.0025347025,1.9709114044,2.5832724689\H,0,1.7496891015,0.26
 43020646,-1.0037841076\H,0,-2.4711311869,0.5831996494,-0.5048738541\H,
 0,-2.2377985823,-1.18191315,-0.5675844232\H,0,-3.1913994642,-0.5532463
 951,1.6147208646\H,0,-1.5238324565,-1.1680848225,1.8861161851\H,0,2.55
 42662047,-0.6020472528,3.2179846293\H,0,0.9289724933,3.0407574203,2.37
 08910671\\Version=ES64L-G16RevA.03\State=2-A\HF=-794.2997553\S2=0.7516
 5\S2-1=0.\S2A=0.750002\RMSD=5.979e-09\Dipole=-0.3109958,-0.4157421,-0.
 2795244\Quadrupole=7.3269254,-4.703174,-2.6237514,-0.5629978,3.9009713
 ,1.4667199\PG=C01 [X(C6H7N3S1)]\\@


 QUHEN THE CAUSS IS TAKEN AWAY THE EFFECT WANISHETH.
 -- PROVERBS AND REASONS OF THE YEAR 1585
           AS REPRINTED IN PAISLEY MAGAZINE 1828.
 Job cpu time:       0 days  0 hours  1 minutes 60.0 seconds.
 Elapsed time:       0 days  0 hours  3 minutes 18.9 seconds.
 File lengths (MBytes):  RWF=     84 Int=      0 D2E=      0 Chk=      8 Scr=      8
 Normal termination of Gaussian 16 at Tue Nov 17 12:16:28 2020.
